LAMPPS input converted from DLPoly config file

     14946   atoms
      9468   bonds
      6966   angles
      1488   impropers

       5   atom types
       2   bond types
       2   angle types
       1   improper types

    0.000000   45.525176 xlo xhi
    0.000000   43.787363 ylo yhi
    0.000000   90.000000 zlo zhi

   25.949444    0.000000    0.000000 xy xz yz

  Masses

       1   40.080000    
       2   12.010000    
       3   16.000000    
       4   16.000000    
       5   1.0100000    

   Atoms

         1         1         1    0.000000   22.967951   37.231050   25.438884
         2         2         1    0.000000   28.383556   40.432784   25.000690
         3         3         1    0.000000   30.555481   37.231050   25.438884
         4         4         1    0.000000   26.211632   39.805319   28.170769
         5         5         1    0.000000   24.672325   41.368424   24.021036
         6         6         1    0.000000   35.971086   40.432784   25.000690
         7         7         1    0.000000   38.143010   37.231050   25.438884
         8         8         1    0.000000   31.627237   43.007053   27.732575
         9         9         1    0.000000   33.799161   39.805319   28.170769
        10        10         1    0.000000   32.259854   41.368424   24.021036
        11        11         1    0.000000   29.455312   42.379588   30.902654
        12        12         1    0.000000   43.558615   40.432784   25.000690
        13        13         1    0.000000   45.730539   37.231050   25.438884
        14        14         1    0.000000   39.214766   43.007053   27.732575
        15        15         1    0.000000   41.386691   39.805319   28.170769
        16        16         1    0.000000   39.847383   41.368424   24.021036
        17        17         1    0.000000   37.042842   42.379588   30.902654
        18        18         1    0.000000   51.146144   40.432784   25.000690
        19        19         1    0.000000   53.318069   37.231050   25.438884
        20        20         1    0.000000   46.802295   43.007053   27.732575
        21        21         1    0.000000   48.974220   39.805319   28.170769
        22        22         1    0.000000   47.434913   41.368424   24.021036
        23        23         1    0.000000   44.630371   42.379588   30.902654
        24        24         1    0.000000   58.733674   40.432784   25.000690
        25        25         1    0.000000   60.905598   37.231050   25.438884
        26        26         1    0.000000   54.389825   43.007053   27.732575
        27        27         1    0.000000   56.561749   39.805319   28.170769
        28        28         1    0.000000   55.022442   41.368424   24.021036
        29        29         1    0.000000   52.217900   42.379588   30.902654
        30        30         1    0.000000   66.321203   40.432784   25.000690
        31        31         1    0.000000   61.977354   43.007053   27.732575
        32        32         1    0.000000   64.149279   39.805319   28.170769
        33        33         1    0.000000   62.609972   41.368424   24.021036
        34        34         1    0.000000   59.805430   42.379588   30.902654
        35        35         1    0.000000   69.564884   43.007053   27.732575
        36        36         1    0.000000   67.392959   42.379588   30.902654
        37        37         1    0.000000   16.480590   26.284209   25.438884
        38        38         1    0.000000   21.896195   29.485943   25.000690
        39        39         1    0.000000   24.068120   26.284209   25.438884
        40        40         1    0.000000   19.724271   28.858478   28.170769
        41        41         1    0.000000   18.184964   30.421584   24.021036
        42        42         1    0.000000   29.483725   29.485943   25.000690
        43        43         1    0.000000   31.655649   26.284209   25.438884
        44        44         1    0.000000   25.139876   32.060212   27.732575
        45        45         1    0.000000   27.311800   28.858478   28.170769
        46        46         1    0.000000   25.772493   30.421584   24.021036
        47        47         1    0.000000   20.796027   34.634482   30.464460
        48        48         1    0.000000   22.967951   31.432748   30.902654
        49        49         1    0.000000   21.428644   32.995853   26.752921
        50        50         1    0.000000   37.071254   29.485943   25.000690
        51        51         1    0.000000   39.243178   26.284209   25.438884
        52        52         1    0.000000   32.727405   32.060212   27.732575
        53        53         1    0.000000   34.899330   28.858478   28.170769
        54        54         1    0.000000   33.360022   30.421584   24.021036
        55        55         1    0.000000   28.383556   34.634482   30.464460
        56        56         1    0.000000   26.844249   36.197587   26.314726
        57        57         1    0.000000   30.555481   31.432748   30.902654
        58        58         1    0.000000   29.016174   32.995853   26.752921
        59        59         1    0.000000   24.039707   37.208751   33.196345
        60        60         1    0.000000   26.211632   34.007017   33.634539
        61        61         1    0.000000   24.672325   35.570122   29.484806
        62        62         1    0.000000   21.867783   36.581286   36.366424
        63        63         1    0.000000   44.658783   29.485943   25.000690
        64        64         1    0.000000   46.830708   26.284209   25.438884
        65        65         1    0.000000   40.314935   32.060212   27.732575
        66        66         1    0.000000   42.486859   28.858478   28.170769
        67        67         1    0.000000   40.947552   30.421584   24.021036
        68        68         1    0.000000   35.971086   34.634482   30.464460
        69        69         1    0.000000   34.431779   36.197587   26.314726
        70        70         1    0.000000   38.143010   31.432748   30.902654
        71        71         1    0.000000   36.603703   32.995853   26.752921
        72        72         1    0.000000   31.627237   37.208751   33.196345
        73        73         1    0.000000   30.087930   38.771856   29.046611
        74        74         1    0.000000   33.799161   34.007017   33.634539
        75        75         1    0.000000   32.259854   35.570122   29.484806
        76        76         1    0.000000   27.283388   39.783020   35.928230
        77        77         1    0.000000   25.744081   41.346125   31.778496
        78        78         1    0.000000   29.455312   36.581286   36.366424
        79        79         1    0.000000   27.916005   38.144391   32.216691
        80        80         1    0.000000   25.111463   39.155555   39.098309
        81        81         1    0.000000   52.246313   29.485943   25.000690
        82        82         1    0.000000   54.418237   26.284209   25.438884
        83        83         1    0.000000   47.902464   32.060212   27.732575
        84        84         1    0.000000   50.074388   28.858478   28.170769
        85        85         1    0.000000   48.535081   30.421584   24.021036
        86        86         1    0.000000   43.558615   34.634482   30.464460
        87        87         1    0.000000   42.019308   36.197587   26.314726
        88        88         1    0.000000   45.730539   31.432748   30.902654
        89        89         1    0.000000   44.191232   32.995853   26.752921
        90        90         1    0.000000   39.214766   37.208751   33.196345
        91        91         1    0.000000   37.675459   38.771856   29.046611
        92        92         1    0.000000   41.386691   34.007017   33.634539
        93        93         1    0.000000   39.847383   35.570122   29.484806
        94        94         1    0.000000   34.870917   39.783020   35.928230
        95        95         1    0.000000   33.331610   41.346125   31.778496
        96        96         1    0.000000   37.042842   36.581286   36.366424
        97        97         1    0.000000   35.503535   38.144391   32.216691
        98        98         1    0.000000   30.527068   42.357289   38.660115
        99        99         1    0.000000   32.698993   39.155555   39.098309
       100       100         1    0.000000   31.159686   40.718661   34.948576
       101       101         1    0.000000   28.355144   41.729825   41.830194
       102       102         1    0.000000   26.815837   43.292930   37.680461
       103       103         1    0.000000   59.833842   29.485943   25.000690
       104       104         1    0.000000   55.489993   32.060212   27.732575
       105       105         1    0.000000   57.661918   28.858478   28.170769
       106       106         1    0.000000   56.122611   30.421584   24.021036
       107       107         1    0.000000   51.146144   34.634482   30.464460
       108       108         1    0.000000   49.606837   36.197587   26.314726
       109       109         1    0.000000   53.318069   31.432748   30.902654
       110       110         1    0.000000   51.778762   32.995853   26.752921
       111       111         1    0.000000   46.802295   37.208751   33.196345
       112       112         1    0.000000   45.262988   38.771856   29.046611
       113       113         1    0.000000   48.974220   34.007017   33.634539
       114       114         1    0.000000   47.434913   35.570122   29.484806
       115       115         1    0.000000   42.458447   39.783020   35.928230
       116       116         1    0.000000   40.919139   41.346125   31.778496
       117       117         1    0.000000   44.630371   36.581286   36.366424
       118       118         1    0.000000   43.091064   38.144391   32.216691
       119       119         1    0.000000   38.114598   42.357289   38.660115
       120       120         1    0.000000   40.286522   39.155555   39.098309
       121       121         1    0.000000   38.747215   40.718661   34.948576
       122       122         1    0.000000   35.942673   41.729825   41.830194
       123       123         1    0.000000   34.403366   43.292930   37.680461
       124       124         1    0.000000   63.077523   32.060212   27.732575
       125       125         1    0.000000   58.733674   34.634482   30.464460
       126       126         1    0.000000   57.194367   36.197587   26.314726
       127       127         1    0.000000   60.905598   31.432748   30.902654
       128       128         1    0.000000   59.366291   32.995853   26.752921
       129       129         1    0.000000   54.389825   37.208751   33.196345
       130       130         1    0.000000   52.850518   38.771856   29.046611
       131       131         1    0.000000   56.561749   34.007017   33.634539
       132       132         1    0.000000   55.022442   35.570122   29.484806
       133       133         1    0.000000   50.045976   39.783020   35.928230
       134       134         1    0.000000   48.506669   41.346125   31.778496
       135       135         1    0.000000   52.217900   36.581286   36.366424
       136       136         1    0.000000   50.678593   38.144391   32.216691
       137       137         1    0.000000   45.702127   42.357289   38.660115
       138       138         1    0.000000   47.874052   39.155555   39.098309
       139       139         1    0.000000   46.334744   40.718661   34.948576
       140       140         1    0.000000   43.530203   41.729825   41.830194
       141       141         1    0.000000   41.990896   43.292930   37.680461
       142       142         1    0.000000   64.781896   36.197587   26.314726
       143       143         1    0.000000   61.977354   37.208751   33.196345
       144       144         1    0.000000   60.438047   38.771856   29.046611
       145       145         1    0.000000   64.149279   34.007017   33.634539
       146       146         1    0.000000   62.609972   35.570122   29.484806
       147       147         1    0.000000   57.633505   39.783020   35.928230
       148       148         1    0.000000   56.094198   41.346125   31.778496
       149       149         1    0.000000   59.805430   36.581286   36.366424
       150       150         1    0.000000   58.266123   38.144391   32.216691
       151       151         1    0.000000   53.289656   42.357289   38.660115
       152       152         1    0.000000   55.461581   39.155555   39.098309
       153       153         1    0.000000   53.922274   40.718661   34.948576
       154       154         1    0.000000   51.117732   41.729825   41.830194
       155       155         1    0.000000   49.578425   43.292930   37.680461
       156       156         1    0.000000   68.025576   38.771856   29.046611
       157       157         1    0.000000   65.221035   39.783020   35.928230
       158       158         1    0.000000   63.681728   41.346125   31.778496
       159       159         1    0.000000   65.853652   38.144391   32.216691
       160       160         1    0.000000   60.877186   42.357289   38.660115
       161       161         1    0.000000   63.049110   39.155555   39.098309
       162       162         1    0.000000   61.509803   40.718661   34.948576
       163       163         1    0.000000   58.705261   41.729825   41.830194
       164       164         1    0.000000   57.165954   43.292930   37.680461
       165       165         1    0.000000   68.464715   42.357289   38.660115
       166       166         1    0.000000   69.097333   40.718661   34.948576
       167       167         1    0.000000   66.292791   41.729825   41.830194
       168       168         1    0.000000   64.753484   43.292930   37.680461
       169       169         1    0.000000    9.993229   15.337368   25.438884
       170       170         1    0.000000   15.408834   18.539102   25.000690
       171       171         1    0.000000   17.580759   15.337368   25.438884
       172       172         1    0.000000   13.236910   17.911638   28.170769
       173       173         1    0.000000   11.697603   19.474743   24.021036
       174       174         1    0.000000   22.996364   18.539102   25.000690
       175       175         1    0.000000   25.168288   15.337368   25.438884
       176       176         1    0.000000   18.652515   21.113372   27.732575
       177       177         1    0.000000   20.824439   17.911638   28.170769
       178       178         1    0.000000   19.285132   19.474743   24.021036
       179       179         1    0.000000   14.308666   23.687641   30.464460
       180       180         1    0.000000   16.480590   20.485907   30.902654
       181       181         1    0.000000   14.941283   22.049012   26.752921
       182       182         1    0.000000   30.583893   18.539102   25.000690
       183       183         1    0.000000   32.755817   15.337368   25.438884
       184       184         1    0.000000   26.240044   21.113372   27.732575
       185       185         1    0.000000   28.411969   17.911638   28.170769
       186       186         1    0.000000   26.872661   19.474743   24.021036
       187       187         1    0.000000   21.896195   23.687641   30.464460
       188       188         1    0.000000   20.356888   25.250746   26.314726
       189       189         1    0.000000   24.068120   20.485907   30.902654
       190       190         1    0.000000   22.528813   22.049012   26.752921
       191       191         1    0.000000   17.552346   26.261910   33.196345
       192       192         1    0.000000   19.724271   23.060176   33.634539
       193       193         1    0.000000   18.184964   24.623282   29.484806
       194       194         1    0.000000   15.380422   25.634446   36.366424
       195       195         1    0.000000   38.171422   18.539102   25.000690
       196       196         1    0.000000   40.343347   15.337368   25.438884
       197       197         1    0.000000   33.827574   21.113372   27.732575
       198       198         1    0.000000   35.999498   17.911638   28.170769
       199       199         1    0.000000   34.460191   19.474743   24.021036
       200       200         1    0.000000   29.483725   23.687641   30.464460
       201       201         1    0.000000   27.944418   25.250746   26.314726
       202       202         1    0.000000   31.655649   20.485907   30.902654
       203       203         1    0.000000   30.116342   22.049012   26.752921
       204       204         1    0.000000   25.139876   26.261910   33.196345
       205       205         1    0.000000   23.600569   27.825016   29.046611
       206       206         1    0.000000   27.311800   23.060176   33.634539
       207       207         1    0.000000   25.772493   24.623282   29.484806
       208       208         1    0.000000   20.796027   28.836180   35.928230
       209       209         1    0.000000   19.256720   30.399285   31.778496
       210       210         1    0.000000   22.967951   25.634446   36.366424
       211       211         1    0.000000   21.428644   27.197551   32.216691
       212       212         1    0.000000   18.624102   28.208715   39.098309
       213       213         1    0.000000   45.758952   18.539102   25.000690
       214       214         1    0.000000   47.930876   15.337368   25.438884
       215       215         1    0.000000   41.415103   21.113372   27.732575
       216       216         1    0.000000   43.587027   17.911638   28.170769
       217       217         1    0.000000   42.047720   19.474743   24.021036
       218       218         1    0.000000   37.071254   23.687641   30.464460
       219       219         1    0.000000   35.531947   25.250746   26.314726
       220       220         1    0.000000   39.243178   20.485907   30.902654
       221       221         1    0.000000   37.703871   22.049012   26.752921
       222       222         1    0.000000   32.727405   26.261910   33.196345
       223       223         1    0.000000   31.188098   27.825016   29.046611
       224       224         1    0.000000   34.899330   23.060176   33.634539
       225       225         1    0.000000   33.360022   24.623282   29.484806
       226       226         1    0.000000   28.383556   28.836180   35.928230
       227       227         1    0.000000   26.844249   30.399285   31.778496
       228       228         1    0.000000   30.555481   25.634446   36.366424
       229       229         1    0.000000   29.016174   27.197551   32.216691
       230       230         1    0.000000   24.039707   31.410449   38.660115
       231       231         1    0.000000   22.500400   32.973554   34.510381
       232       232         1    0.000000   26.211632   28.208715   39.098309
       233       233         1    0.000000   24.672325   29.771820   34.948576
       234       234         1    0.000000   21.867783   30.782984   41.830194
       235       235         1    0.000000   20.328476   32.346089   37.680461
       236       236         1    0.000000   53.346481   18.539102   25.000690
       237       237         1    0.000000   49.002632   21.113372   27.732575
       238       238         1    0.000000   51.174557   17.911638   28.170769
       239       239         1    0.000000   49.635250   19.474743   24.021036
       240       240         1    0.000000   44.658783   23.687641   30.464460
       241       241         1    0.000000   43.119476   25.250746   26.314726
       242       242         1    0.000000   46.830708   20.485907   30.902654
       243       243         1    0.000000   45.291401   22.049012   26.752921
       244       244         1    0.000000   40.314935   26.261910   33.196345
       245       245         1    0.000000   38.775627   27.825016   29.046611
       246       246         1    0.000000   42.486859   23.060176   33.634539
       247       247         1    0.000000   40.947552   24.623282   29.484806
       248       248         1    0.000000   35.971086   28.836180   35.928230
       249       249         1    0.000000   34.431779   30.399285   31.778496
       250       250         1    0.000000   38.143010   25.634446   36.366424
       251       251         1    0.000000   36.603703   27.197551   32.216691
       252       252         1    0.000000   31.627237   31.410449   38.660115
       253       253         1    0.000000   30.087930   32.973554   34.510381
       254       254         1    0.000000   33.799161   28.208715   39.098309
       255       255         1    0.000000   32.259854   29.771820   34.948576
       256       256         1    0.000000   27.283388   33.984718   41.392000
       257       257         1    0.000000   25.744081   35.547823   37.242266
       258       258         1    0.000000   29.455312   30.782984   41.830194
       259       259         1    0.000000   27.916005   32.346089   37.680461
       260       260         1    0.000000   22.939539   36.558987   44.123884
       261       261         1    0.000000   25.111463   33.357253   44.562079
       262       262         1    0.000000   23.572156   34.920359   40.412346
       263       263         1    0.000000   56.590162   21.113372   27.732575
       264       264         1    0.000000   52.246313   23.687641   30.464460
       265       265         1    0.000000   50.707006   25.250746   26.314726
       266       266         1    0.000000   54.418237   20.485907   30.902654
       267       267         1    0.000000   52.878930   22.049012   26.752921
       268       268         1    0.000000   47.902464   26.261910   33.196345
       269       269         1    0.000000   46.363157   27.825016   29.046611
       270       270         1    0.000000   50.074388   23.060176   33.634539
       271       271         1    0.000000   48.535081   24.623282   29.484806
       272       272         1    0.000000   43.558615   28.836180   35.928230
       273       273         1    0.000000   42.019308   30.399285   31.778496
       274       274         1    0.000000   45.730539   25.634446   36.366424
       275       275         1    0.000000   44.191232   27.197551   32.216691
       276       276         1    0.000000   39.214766   31.410449   38.660115
       277       277         1    0.000000   37.675459   32.973554   34.510381
       278       278         1    0.000000   41.386691   28.208715   39.098309
       279       279         1    0.000000   39.847383   29.771820   34.948576
       280       280         1    0.000000   34.870917   33.984718   41.392000
       281       281         1    0.000000   33.331610   35.547823   37.242266
       282       282         1    0.000000   37.042842   30.782984   41.830194
       283       283         1    0.000000   35.503535   32.346089   37.680461
       284       284         1    0.000000   30.527068   36.558987   44.123884
       285       285         1    0.000000   28.987761   38.122093   39.974151
       286       286         1    0.000000   32.698993   33.357253   44.562079
       287       287         1    0.000000   31.159686   34.920359   40.412346
       288       288         1    0.000000   26.183219   39.133257   46.855769
       289       289         1    0.000000   24.643912   40.696362   42.706036
       290       290         1    0.000000   28.355144   35.931523   47.293964
       291       291         1    0.000000   26.815837   37.494628   43.144231
       292       292         1    0.000000   24.011295   38.505792   50.025849
       293       293         1    0.000000   58.294535   25.250746   26.314726
       294       294         1    0.000000   55.489993   26.261910   33.196345
       295       295         1    0.000000   53.950686   27.825016   29.046611
       296       296         1    0.000000   57.661918   23.060176   33.634539
       297       297         1    0.000000   56.122611   24.623282   29.484806
       298       298         1    0.000000   51.146144   28.836180   35.928230
       299       299         1    0.000000   49.606837   30.399285   31.778496
       300       300         1    0.000000   53.318069   25.634446   36.366424
       301       301         1    0.000000   51.778762   27.197551   32.216691
       302       302         1    0.000000   46.802295   31.410449   38.660115
       303       303         1    0.000000   45.262988   32.973554   34.510381
       304       304         1    0.000000   48.974220   28.208715   39.098309
       305       305         1    0.000000   47.434913   29.771820   34.948576
       306       306         1    0.000000   42.458447   33.984718   41.392000
       307       307         1    0.000000   40.919139   35.547823   37.242266
       308       308         1    0.000000   44.630371   30.782984   41.830194
       309       309         1    0.000000   43.091064   32.346089   37.680461
       310       310         1    0.000000   38.114598   36.558987   44.123884
       311       311         1    0.000000   36.575291   38.122093   39.974151
       312       312         1    0.000000   40.286522   33.357253   44.562079
       313       313         1    0.000000   38.747215   34.920359   40.412346
       314       314         1    0.000000   33.770749   39.133257   46.855769
       315       315         1    0.000000   32.231442   40.696362   42.706036
       316       316         1    0.000000   35.942673   35.931523   47.293964
       317       317         1    0.000000   34.403366   37.494628   43.144231
       318       318         1    0.000000   29.426900   41.707526   49.587654
       319       319         1    0.000000   27.887593   43.270631   45.437921
       320       320         1    0.000000   31.598824   38.505792   50.025849
       321       321         1    0.000000   30.059517   40.068897   45.876116
       322       322         1    0.000000   27.254976   41.080061   52.757734
       323       323         1    0.000000   25.715668   42.643167   48.608000
       324       324         1    0.000000   61.538216   27.825016   29.046611
       325       325         1    0.000000   58.733674   28.836180   35.928230
       326       326         1    0.000000   57.194367   30.399285   31.778496
       327       327         1    0.000000   59.366291   27.197551   32.216691
       328       328         1    0.000000   54.389825   31.410449   38.660115
       329       329         1    0.000000   52.850518   32.973554   34.510381
       330       330         1    0.000000   56.561749   28.208715   39.098309
       331       331         1    0.000000   55.022442   29.771820   34.948576
       332       332         1    0.000000   50.045976   33.984718   41.392000
       333       333         1    0.000000   48.506669   35.547823   37.242266
       334       334         1    0.000000   52.217900   30.782984   41.830194
       335       335         1    0.000000   50.678593   32.346089   37.680461
       336       336         1    0.000000   45.702127   36.558987   44.123884
       337       337         1    0.000000   44.162820   38.122093   39.974151
       338       338         1    0.000000   47.874052   33.357253   44.562079
       339       339         1    0.000000   46.334744   34.920359   40.412346
       340       340         1    0.000000   41.358278   39.133257   46.855769
       341       341         1    0.000000   39.818971   40.696362   42.706036
       342       342         1    0.000000   43.530203   35.931523   47.293964
       343       343         1    0.000000   41.990896   37.494628   43.144231
       344       344         1    0.000000   37.014429   41.707526   49.587654
       345       345         1    0.000000   35.475122   43.270631   45.437921
       346       346         1    0.000000   39.186354   38.505792   50.025849
       347       347         1    0.000000   37.647047   40.068897   45.876116
       348       348         1    0.000000   34.842505   41.080061   52.757734
       349       349         1    0.000000   33.303198   42.643167   48.608000
       350       350         1    0.000000   30.498656   43.654331   55.489619
       351       351         1    0.000000   61.977354   31.410449   38.660115
       352       352         1    0.000000   60.438047   32.973554   34.510381
       353       353         1    0.000000   62.609972   29.771820   34.948576
       354       354         1    0.000000   57.633505   33.984718   41.392000
       355       355         1    0.000000   56.094198   35.547823   37.242266
       356       356         1    0.000000   59.805430   30.782984   41.830194
       357       357         1    0.000000   58.266123   32.346089   37.680461
       358       358         1    0.000000   53.289656   36.558987   44.123884
       359       359         1    0.000000   51.750349   38.122093   39.974151
       360       360         1    0.000000   55.461581   33.357253   44.562079
       361       361         1    0.000000   53.922274   34.920359   40.412346
       362       362         1    0.000000   48.945808   39.133257   46.855769
       363       363         1    0.000000   47.406500   40.696362   42.706036
       364       364         1    0.000000   51.117732   35.931523   47.293964
       365       365         1    0.000000   49.578425   37.494628   43.144231
       366       366         1    0.000000   44.601959   41.707526   49.587654
       367       367         1    0.000000   43.062652   43.270631   45.437921
       368       368         1    0.000000   46.773883   38.505792   50.025849
       369       369         1    0.000000   45.234576   40.068897   45.876116
       370       370         1    0.000000   42.430034   41.080061   52.757734
       371       371         1    0.000000   40.890727   42.643167   48.608000
       372       372         1    0.000000   38.086185   43.654331   55.489619
       373       373         1    0.000000   65.221035   33.984718   41.392000