LAMPPS input converted from DLPoly config file

     11534   atoms
      7348   bonds
      5210   angles
      1024   impropers

       5   atom types
       2   bond types
       2   angle types
       1   improper types

    0.000000   45.852837 xlo xhi
    0.000000   33.381709 ylo yhi
    0.000000   90.000000 zlo zhi

   17.176008    0.000000    0.000000 xy xz yz

  Masses

       1   40.080000    
       2   12.010000    
       3   16.000000    
       4   16.000000    
       5   1.0100000    

   Atoms

         1         1         1    0.000000   15.394004   28.308856   26.461449
         2         2         1    0.000000   18.250403   32.299658   30.422051
         3         3         1    0.000000   19.688006   29.048551   28.833351
         4         4         1    0.000000   17.595634   32.453461   26.371317
         5         5         1    0.000000   16.812800   30.527940   33.577156
         6         6         1    0.000000   25.419610   31.559964   28.050149
         7         7         1    0.000000   26.857213   28.308856   26.461449
         8         8         1    0.000000   22.544405   33.039353   32.793954
         9         9         1    0.000000   23.982008   29.788246   31.205254
        10        10         1    0.000000   21.889635   33.193156   28.743219
        11        11         1    0.000000   21.106802   31.267635   35.949058
        12        12         1    0.000000   18.231597   32.747025   40.692863
        13        13         1    0.000000   29.713612   32.299658   30.422051
        14        14         1    0.000000   31.151215   29.048551   28.833351
        15        15         1    0.000000   29.058843   32.453461   26.371317
        16        16         1    0.000000   28.276009   30.527940   33.577156
        17        17         1    0.000000   25.400804   32.007330   38.320960
        18        18         1    0.000000   36.882819   31.559964   28.050149
        19        19         1    0.000000   38.320422   28.308856   26.461449
        20        20         1    0.000000   34.007614   33.039353   32.793954
        21        21         1    0.000000   35.445217   29.788246   31.205254
        22        22         1    0.000000   33.352845   33.193156   28.743219
        23        23         1    0.000000   32.570011   31.267635   35.949058
        24        24         1    0.000000   29.694806   32.747025   40.692863
        25        25         1    0.000000   41.176821   32.299658   30.422051
        26        26         1    0.000000   42.614424   29.048551   28.833351
        27        27         1    0.000000   40.522052   32.453461   26.371317
        28        28         1    0.000000   39.739219   30.527940   33.577156
        29        29         1    0.000000   36.864013   32.007330   38.320960
        30        30         1    0.000000   48.346029   31.559964   28.050149
        31        31         1    0.000000   49.783631   28.308856   26.461449
        32        32         1    0.000000   45.470823   33.039353   32.793954
        33        33         1    0.000000   46.908426   29.788246   31.205254
        34        34         1    0.000000   44.816054   33.193156   28.743219
        35        35         1    0.000000   44.033220   31.267635   35.949058
        36        36         1    0.000000   41.158015   32.747025   40.692863
        37        37         1    0.000000   52.640030   32.299658   30.422051
        38        38         1    0.000000   54.077633   29.048551   28.833351
        39        39         1    0.000000   51.985261   32.453461   26.371317
        40        40         1    0.000000   51.202428   30.527940   33.577156
        41        41         1    0.000000   48.327222   32.007330   38.320960
        42        42         1    0.000000   59.809238   31.559964   28.050149
        43        43         1    0.000000   56.934032   33.039353   32.793954
        44        44         1    0.000000   58.371635   29.788246   31.205254
        45        45         1    0.000000   56.279263   33.193156   28.743219
        46        46         1    0.000000   55.496430   31.267635   35.949058
        47        47         1    0.000000   52.621224   32.747025   40.692863
        48        48         1    0.000000   59.790432   32.007330   38.320960
        49        49         1    0.000000   11.100002   19.963429   26.461449
        50        50         1    0.000000   13.956401   23.954231   30.422051
        51        51         1    0.000000   15.394004   20.703123   28.833351
        52        52         1    0.000000   13.301632   24.108034   26.371317
        53        53         1    0.000000   12.518798   22.182513   33.577156
        54        54         1    0.000000   21.125608   23.214536   28.050149
        55        55         1    0.000000   22.563211   19.963429   26.461449
        56        56         1    0.000000   18.250403   24.693926   32.793954
        57        57         1    0.000000   16.158031   28.098836   30.331919
        58        58         1    0.000000   19.688006   21.442818   31.205254
        59        59         1    0.000000   17.595634   24.847729   28.743219
        60        60         1    0.000000   15.375198   26.173315   37.537758
        61        61         1    0.000000   16.812800   22.922208   35.949058
        62        62         1    0.000000   14.720428   26.327118   33.487024
        63        63         1    0.000000   13.937595   24.401597   40.692863
        64        64         1    0.000000   25.419610   23.954231   30.422051
        65        65         1    0.000000   23.327238   27.359142   27.960017
        66        66         1    0.000000   26.857213   20.703123   28.833351
        67        67         1    0.000000   24.764841   24.108034   26.371317
        68        68         1    0.000000   22.544405   25.433621   35.165856
        69        69         1    0.000000   20.452033   28.838531   32.703821
        70        70         1    0.000000   23.982008   22.182513   33.577156
        71        71         1    0.000000   21.889635   25.587423   31.115121
        72        72         1    0.000000   19.669199   26.913010   39.909661
        73        73         1    0.000000   17.576827   30.317921   37.447626
        74        74         1    0.000000   21.106802   23.661902   38.320960
        75        75         1    0.000000   19.014430   27.066813   35.858926
        76        76         1    0.000000   16.793994   28.392400   44.653465
        77        77         1    0.000000   18.231597   25.141292   43.064765
        78        78         1    0.000000   16.139225   28.546202   40.602730
        79        79         1    0.000000   15.356391   26.620681   47.808569
        80        80         1    0.000000   32.588818   23.214536   28.050149
        81        81         1    0.000000   34.026420   19.963429   26.461449
        82        82         1    0.000000   29.713612   24.693926   32.793954
        83        83         1    0.000000   27.621240   28.098836   30.331919
        84        84         1    0.000000   31.151215   21.442818   31.205254
        85        85         1    0.000000   29.058843   24.847729   28.743219
        86        86         1    0.000000   26.838407   26.173315   37.537758
        87        87         1    0.000000   24.746035   29.578226   35.075724
        88        88         1    0.000000   28.276009   22.922208   35.949058
        89        89         1    0.000000   26.183637   26.327118   33.487024
        90        90         1    0.000000   23.963201   27.652705   42.281563
        91        91         1    0.000000   21.870829   31.057615   39.819528
        92        92         1    0.000000   25.400804   24.401597   40.692863
        93        93         1    0.000000   23.308432   27.806508   38.230828
        94        94         1    0.000000   21.087996   29.132094   47.025367
        95        95         1    0.000000   18.995624   32.537005   44.563333
        96        96         1    0.000000   22.525599   25.880987   45.436667
        97        97         1    0.000000   20.433227   29.285897   42.974633
        98        98         1    0.000000   18.212790   30.611484   51.769172
        99        99         1    0.000000   19.650393   27.360376   50.180472
       100       100         1    0.000000   17.558021   30.765287   47.718437
       101       101         1    0.000000   16.775188   28.839766   54.924276
       102       102         1    0.000000   36.882819   23.954231   30.422051
       103       103         1    0.000000   34.790447   27.359142   27.960017
       104       104         1    0.000000   38.320422   20.703123   28.833351
       105       105         1    0.000000   36.228050   24.108034   26.371317
       106       106         1    0.000000   34.007614   25.433621   35.165856
       107       107         1    0.000000   31.915242   28.838531   32.703821
       108       108         1    0.000000   35.445217   22.182513   33.577156
       109       109         1    0.000000   33.352845   25.587423   31.115121
       110       110         1    0.000000   31.132409   26.913010   39.909661
       111       111         1    0.000000   29.040037   30.317921   37.447626
       112       112         1    0.000000   32.570011   23.661902   38.320960
       113       113         1    0.000000   30.477639   27.066813   35.858926
       114       114         1    0.000000   28.257203   28.392400   44.653465
       115       115         1    0.000000   26.164831   31.797310   42.191431
       116       116         1    0.000000   29.694806   25.141292   43.064765
       117       117         1    0.000000   27.602434   28.546202   40.602730
       118       118         1    0.000000   25.381998   29.871789   49.397270
       119       119         1    0.000000   23.289626   33.276700   46.935235
       120       120         1    0.000000   26.819600   26.620681   47.808569
       121       121         1    0.000000   24.727228   30.025592   45.346535
       122       122         1    0.000000   22.506792   31.351179   54.141074
       123       123         1    0.000000   23.944395   28.100071   52.552374
       124       124         1    0.000000   21.852023   31.504981   50.090339
       125       125         1    0.000000   19.631587   32.830568   58.884879
       126       126         1    0.000000   21.069190   29.579460   57.296179
       127       127         1    0.000000   18.976818   32.984371   54.834144
       128       128         1    0.000000   18.193984   31.058850   62.039983
       129       129         1    0.000000   44.052027   23.214536   28.050149
       130       130         1    0.000000   45.489629   19.963429   26.461449
       131       131         1    0.000000   41.176821   24.693926   32.793954
       132       132         1    0.000000   39.084449   28.098836   30.331919
       133       133         1    0.000000   42.614424   21.442818   31.205254
       134       134         1    0.000000   40.522052   24.847729   28.743219
       135       135         1    0.000000   38.301616   26.173315   37.537758
       136       136         1    0.000000   36.209244   29.578226   35.075724
       137       137         1    0.000000   39.739219   22.922208   35.949058
       138       138         1    0.000000   37.646847   26.327118   33.487024
       139       139         1    0.000000   35.426410   27.652705   42.281563
       140       140         1    0.000000   33.334038   31.057615   39.819528
       141       141         1    0.000000   36.864013   24.401597   40.692863
       142       142         1    0.000000   34.771641   27.806508   38.230828
       143       143         1    0.000000   32.551205   29.132094   47.025367
       144       144         1    0.000000   30.458833   32.537005   44.563333
       145       145         1    0.000000   33.988808   25.880987   45.436667
       146       146         1    0.000000   31.896436   29.285897   42.974633
       147       147         1    0.000000   29.676000   30.611484   51.769172
       148       148         1    0.000000   31.113602   27.360376   50.180472
       149       149         1    0.000000   29.021230   30.765287   47.718437
       150       150         1    0.000000   26.800794   32.090873   56.512976
       151       151         1    0.000000   28.238397   28.839766   54.924276
       152       152         1    0.000000   26.146025   32.244676   52.462242
       153       153         1    0.000000   25.363192   30.319155   59.668081
       154       154         1    0.000000   48.346029   23.954231   30.422051
       155       155         1    0.000000   46.253657   27.359142   27.960017
       156       156         1    0.000000   49.783631   20.703123   28.833351
       157       157         1    0.000000   47.691259   24.108034   26.371317
       158       158         1    0.000000   45.470823   25.433621   35.165856
       159       159         1    0.000000   43.378451   28.838531   32.703821
       160       160         1    0.000000   46.908426   22.182513   33.577156
       161       161         1    0.000000   44.816054   25.587423   31.115121
       162       162         1    0.000000   42.595618   26.913010   39.909661
       163       163         1    0.000000   40.503246   30.317921   37.447626
       164       164         1    0.000000   44.033220   23.661902   38.320960
       165       165         1    0.000000   41.940848   27.066813   35.858926
       166       166         1    0.000000   39.720412   28.392400   44.653465
       167       167         1    0.000000   37.628040   31.797310   42.191431
       168       168         1    0.000000   41.158015   25.141292   43.064765
       169       169         1    0.000000   39.065643   28.546202   40.602730
       170       170         1    0.000000   36.845207   29.871789   49.397270
       171       171         1    0.000000   34.752835   33.276700   46.935235
       172       172         1    0.000000   38.282810   26.620681   47.808569
       173       173         1    0.000000   36.190438   30.025592   45.346535
       174       174         1    0.000000   33.970002   31.351179   54.141074
       175       175         1    0.000000   35.407604   28.100071   52.552374
       176       176         1    0.000000   33.315232   31.504981   50.090339
       177       177         1    0.000000   31.094796   32.830568   58.884879
       178       178         1    0.000000   32.532399   29.579460   57.296179
       179       179         1    0.000000   30.440027   32.984371   54.834144
       180       180         1    0.000000   29.657193   31.058850   62.039983
       181       181         1    0.000000   55.515236   23.214536   28.050149
       182       182         1    0.000000   52.640030   24.693926   32.793954
       183       183         1    0.000000   50.547658   28.098836   30.331919
       184       184         1    0.000000   54.077633   21.442818   31.205254
       185       185         1    0.000000   51.985261   24.847729   28.743219
       186       186         1    0.000000   49.764825   26.173315   37.537758
       187       187         1    0.000000   47.672453   29.578226   35.075724
       188       188         1    0.000000   51.202428   22.922208   35.949058
       189       189         1    0.000000   49.110056   26.327118   33.487024
       190       190         1    0.000000   46.889620   27.652705   42.281563
       191       191         1    0.000000   44.797248   31.057615   39.819528
       192       192         1    0.000000   48.327222   24.401597   40.692863
       193       193         1    0.000000   46.234850   27.806508   38.230828
       194       194         1    0.000000   44.014414   29.132094   47.025367
       195       195         1    0.000000   41.922042   32.537005   44.563333
       196       196         1    0.000000   45.452017   25.880987   45.436667
       197       197         1    0.000000   43.359645   29.285897   42.974633
       198       198         1    0.000000   41.139209   30.611484   51.769172
       199       199         1    0.000000   42.576812   27.360376   50.180472
       200       200         1    0.000000   40.484440   30.765287   47.718437
       201       201         1    0.000000   38.264003   32.090873   56.512976
       202       202         1    0.000000   39.701606   28.839766   54.924276
       203       203         1    0.000000   37.609234   32.244676   52.462242
       204       204         1    0.000000   36.826401   30.319155   59.668081
       205       205         1    0.000000   57.716866   27.359142   27.960017
       206       206         1    0.000000   56.934032   25.433621   35.165856
       207       207         1    0.000000   54.841660   28.838531   32.703821
       208       208         1    0.000000   56.279263   25.587423   31.115121
       209       209         1    0.000000   54.058827   26.913010   39.909661
       210       210         1    0.000000   51.966455   30.317921   37.447626
       211       211         1    0.000000   55.496430   23.661902   38.320960
       212       212         1    0.000000   53.404058   27.066813   35.858926
       213       213         1    0.000000   51.183622   28.392400   44.653465
       214       214         1    0.000000   49.091250   31.797310   42.191431
       215       215         1    0.000000   52.621224   25.141292   43.064765
       216       216         1    0.000000   50.528852   28.546202   40.602730
       217       217         1    0.000000   48.308416   29.871789   49.397270
       218       218         1    0.000000   46.216044   33.276700   46.935235
       219       219         1    0.000000   49.746019   26.620681   47.808569
       220       220         1    0.000000   47.653647   30.025592   45.346535
       221       221         1    0.000000   45.433211   31.351179   54.141074
       222       222         1    0.000000   46.870813   28.100071   52.552374
       223       223         1    0.000000   44.778441   31.504981   50.090339
       224       224         1    0.000000   42.558005   32.830568   58.884879
       225       225         1    0.000000   43.995608   29.579460   57.296179
       226       226         1    0.000000   41.903236   32.984371   54.834144
       227       227         1    0.000000   41.120403   31.058850   62.039983
       228       228         1    0.000000   59.135662   29.578226   35.075724
       229       229         1    0.000000   58.352829   27.652705   42.281563
       230       230         1    0.000000   56.260457   31.057615   39.819528
       231       231         1    0.000000   57.698060   27.806508   38.230828
       232       232         1    0.000000   55.477623   29.132094   47.025367
       233       233         1    0.000000   53.385251   32.537005   44.563333
       234       234         1    0.000000   56.915226   25.880987   45.436667
       235       235         1    0.000000   54.822854   29.285897   42.974633
       236       236         1    0.000000   52.602418   30.611484   51.769172
       237       237         1    0.000000   54.040021   27.360376   50.180472
       238       238         1    0.000000   51.947649   30.765287   47.718437
       239       239         1    0.000000   49.727213   32.090873   56.512976
       240       240         1    0.000000   51.164815   28.839766   54.924276
       241       241         1    0.000000   49.072443   32.244676   52.462242
       242       242         1    0.000000   48.289610   30.319155   59.668081
       243       243         1    0.000000   60.554459   31.797310   42.191431
       244       244         1    0.000000   59.771625   29.871789   49.397270
       245       245         1    0.000000   57.679253   33.276700   46.935235
       246       246         1    0.000000   59.116856   30.025592   45.346535
       247       247         1    0.000000   56.896420   31.351179   54.141074
       248       248         1    0.000000   58.334023   28.100071   52.552374
       249       249         1    0.000000   56.241651   31.504981   50.090339
       250       250         1    0.000000   54.021215   32.830568   58.884879
       251       251         1    0.000000   55.458817   29.579460   57.296179
       252       252         1    0.000000   53.366445   32.984371   54.834144
       253       253         1    0.000000   52.583612   31.058850   62.039983
       254       254         1    0.000000   61.190422   32.090873   56.512976
       255       255         1    0.000000   60.535653   32.244676   52.462242
       256       256         1    0.000000   59.752819   30.319155   59.668081
       257       257         1    0.000000    6.806000   11.618001   26.461449
       258       258         1    0.000000    9.662399   15.608804   30.422051
       259       259         1    0.000000   11.100002   12.357696   28.833351
       260       260         1    0.000000    9.007630   15.762607   26.371317
       261       261         1    0.000000    8.224796   13.837086   33.577156
       262       262         1    0.000000   16.831606   14.869109   28.050149
       263       263         1    0.000000   18.269209   11.618001   26.461449
       264       264         1    0.000000   13.956401   16.348498   32.793954
       265       265         1    0.000000   11.864029   19.753409   30.331919
       266       266         1    0.000000   15.394004   13.097391   31.205254
       267       267         1    0.000000   13.301632   16.502301   28.743219
       268       268         1    0.000000   11.081196   17.827888   37.537758
       269       269         1    0.000000   12.518798   14.576780   35.949058
       270       270         1    0.000000   10.426426   17.981691   33.487024
       271       271         1    0.000000    9.643593   16.056170   40.692863
       272       272         1    0.000000   21.125608   15.608804   30.422051
       273       273         1    0.000000   19.033236   19.013714   27.960017
       274       274         1    0.000000   22.563211   12.357696   28.833351
       275       275         1    0.000000   20.470839   15.762607   26.371317
       276       276         1    0.000000   18.250403   17.088193   35.165856
       277       277         1    0.000000   16.158031   20.493104   32.703821
       278       278         1    0.000000   19.688006   13.837086   33.577156
       279       279         1    0.000000   17.595634   17.241996   31.115121
       280       280         1    0.000000   15.375198   18.567583   39.909661
       281       281         1    0.000000   13.282825   21.972493   37.447626
       282       282         1    0.000000   16.812800   15.316475   38.320960
       283       283         1    0.000000   14.720428   18.721386   35.858926
       284       284         1    0.000000   12.499992   20.046972   44.653465
       285       285         1    0.000000   13.937595   16.795865   43.064765
       286       286         1    0.000000   11.845223   20.200775   40.602730
       287       287         1    0.000000   11.062389   18.275254   47.808569
       288       288         1    0.000000   28.294816   14.869109   28.050149
       289       289         1    0.000000   29.732418   11.618001   26.461449
       290       290         1    0.000000   25.419610   16.348498   32.793954
       291       291         1    0.000000   23.327238   19.753409   30.331919
       292       292         1    0.000000   26.857213   13.097391   31.205254
       293       293         1    0.000000   24.764841   16.502301   28.743219
       294       294         1    0.000000   22.544405   17.827888   37.537758
       295       295         1    0.000000   20.452033   21.232799   35.075724
       296       296         1    0.000000   23.982008   14.576780   35.949058
       297       297         1    0.000000   21.889635   17.981691   33.487024
       298       298         1    0.000000   19.669199   19.307277   42.281563
       299       299         1    0.000000   17.576827   22.712188   39.819528
       300       300         1    0.000000   21.106802   16.056170   40.692863
       301       301         1    0.000000   19.014430   19.461080   38.230828
       302       302         1    0.000000   16.793994   20.786667   47.025367
       303       303         1    0.000000   14.701622   24.191577   44.563333
       304       304         1    0.000000   18.231597   17.535559   45.436667
       305       305         1    0.000000   16.139225   20.940470   42.974633
       306       306         1    0.000000   13.918789   22.266056   51.769172
       307       307         1    0.000000   15.356391   19.014949   50.180472
       308       308         1    0.000000   13.264019   22.419859   47.718437
       309       309         1    0.000000   12.481186   20.494338   54.924276
       310       310         1    0.000000   32.588818   15.608804   30.422051
       311       311         1    0.000000   30.496445   19.013714   27.960017
       312       312         1    0.000000   34.026420   12.357696   28.833351
       313       313         1    0.000000   31.934048   15.762607   26.371317
       314       314         1    0.000000   29.713612   17.088193   35.165856
       315       315         1    0.000000   27.621240   20.493104   32.703821
       316       316         1    0.000000   31.151215   13.837086   33.577156
       317       317         1    0.000000   29.058843   17.241996   31.115121
       318       318         1    0.000000   26.838407   18.567583   39.909661
       319       319         1    0.000000   24.746035   21.972493   37.447626
       320       320         1    0.000000   28.276009   15.316475   38.320960
       321       321         1    0.000000   26.183637   18.721386   35.858926
       322       322         1    0.000000   23.963201   20.046972   44.653465
       323       323         1    0.000000   21.870829   23.451883   42.191431
       324       324         1    0.000000   25.400804   16.795865   43.064765
       325       325         1    0.000000   23.308432   20.200775   40.602730
       326       326         1    0.000000   21.087996   21.526362   49.397270
       327       327         1    0.000000   18.995624   24.931272   46.935235
       328       328         1    0.000000   22.525599   18.275254   47.808569
       329       329         1    0.000000   20.433227   21.680165   45.346535
       330       330         1    0.000000   18.212790   23.005751   54.141074
       331       331         1    0.000000   16.120418   26.410662   51.679040
       332       332         1    0.000000   19.650393   19.754644   52.552374
       333       333         1    0.000000   17.558021   23.159554   50.090339
       334       334         1    0.000000   15.337585   24.485141   58.884879
       335       335         1    0.000000   16.775188   21.234033   57.296179
       336       336         1    0.000000   14.682816   24.638944   54.834144
       337       337         1    0.000000   13.899982   22.713422   62.039983
       338       338         1    0.000000   39.758025   14.869109   28.050149
       339       339         1    0.000000   41.195628   11.618001   26.461449
       340       340         1    0.000000   36.882819   16.348498   32.793954
       341       341         1    0.000000   34.790447   19.753409   30.331919
       342       342         1    0.000000   38.320422   13.097391   31.205254
       343       343         1    0.000000   36.228050   16.502301   28.743219
       344       344         1    0.000000   34.007614   17.827888   37.537758
       345       345         1    0.000000   31.915242   21.232799   35.075724
       346       346         1    0.000000   35.445217   14.576780   35.949058
       347       347         1    0.000000   33.352845   17.981691   33.487024
       348       348         1    0.000000   31.132409   19.307277   42.281563
       349       349         1    0.000000   29.040037   22.712188   39.819528
       350       350         1    0.000000   32.570011   16.056170   40.692863
       351       351         1    0.000000   30.477639   19.461080   38.230828
       352       352         1    0.000000   28.257203   20.786667   47.025367
       353       353         1    0.000000   26.164831   24.191577   44.563333
       354       354         1    0.000000   29.694806   17.535559   45.436667
       355       355         1    0.000000   27.602434   20.940470   42.974633
       356       356         1    0.000000   25.381998   22.266056   51.769172
       357       357         1    0.000000   23.289626   25.670967   49.307137
       358       358         1    0.000000   26.819600   19.014949   50.180472
       359       359         1    0.000000   24.727228   22.419859   47.718437
       360       360         1    0.000000   22.506792   23.745446   56.512976
       361       361         1    0.000000   20.414420   27.150356   54.050942
       362       362         1    0.000000   23.944395   20.494338   54.924276
       363       363         1    0.000000   21.852023   23.899249   52.462242
       364       364         1    0.000000   19.631587   25.224835   61.256781
       365       365         1    0.000000   17.539215   28.629746   58.794746
       366       366         1    0.000000   21.069190   21.973728   59.668081
       367       367         1    0.000000   18.976818   25.378638   57.206046
       368       368         1    0.000000   16.101612   26.858028   61.949851
       369       369         1    0.000000   44.052027   15.608804   30.422051
       370       370         1    0.000000   41.959655   19.013714   27.960017
       371       371         1    0.000000   45.489629   12.357696   28.833351
       372       372         1    0.000000   43.397257   15.762607   26.371317
       373       373         1    0.000000   41.176821   17.088193   35.165856