LAMPPS input converted from DLPoly config file

      8024   atoms
      5072   bonds
      3784   angles
       832   impropers

       5   atom types
       2   bond types
       2   angle types
       1   improper types

    0.000000   27.950629 xlo xhi
    0.000000   39.688000 ylo yhi
    0.000000   90.000000 zlo zhi


  Masses

       1   40.080000    
       2   12.010000    
       3   16.000000    
       4   16.000000    
       5   1.0100000    

   Atoms

         1         1         1    0.000000    8.857549    3.720750   25.131753
         2         2         1    0.000000   12.715630    3.720750   25.656712
         3         3         1    0.000000    4.140792    3.720750   28.404563
         4         4         1    0.000000    1.959510    1.240250   25.069570
         5         5         1    0.000000    7.998873    3.720750   28.929522
         6         6         1    0.000000    5.817591    1.240250   25.594528
         7         7         1    0.000000    3.282116    3.720750   32.202332
         8         8         1    0.000000    1.100834    1.240250   28.867338
         9         9         1    0.000000    8.857549    8.681750   25.131753
        10        10         1    0.000000   12.715630    8.681750   25.656712
        11        11         1    0.000000    4.140792    8.681750   28.404563
        12        12         1    0.000000    1.959510    6.201250   25.069570
        13        13         1    0.000000    7.998873    8.681750   28.929522
        14        14         1    0.000000    5.817591    6.201250   25.594528
        15        15         1    0.000000    3.282116    8.681750   32.202332
        16        16         1    0.000000    1.100834    6.201250   28.867338
        17        17         1    0.000000    8.857549   13.642750   25.131753
        18        18         1    0.000000   12.715630   13.642750   25.656712
        19        19         1    0.000000    4.140792   13.642750   28.404563
        20        20         1    0.000000    1.959510   11.162250   25.069570
        21        21         1    0.000000    7.998873   13.642750   28.929522
        22        22         1    0.000000    5.817591   11.162250   25.594528
        23        23         1    0.000000    3.282116   13.642750   32.202332
        24        24         1    0.000000    1.100834   11.162250   28.867338
        25        25         1    0.000000    8.857549   18.603750   25.131753
        26        26         1    0.000000   12.715630   18.603750   25.656712
        27        27         1    0.000000    4.140792   18.603750   28.404563
        28        28         1    0.000000    1.959510   16.123250   25.069570
        29        29         1    0.000000    7.998873   18.603750   28.929522
        30        30         1    0.000000    5.817591   16.123250   25.594528
        31        31         1    0.000000    3.282116   18.603750   32.202332
        32        32         1    0.000000    1.100834   16.123250   28.867338
        33        33         1    0.000000    8.857549   23.564750   25.131753
        34        34         1    0.000000   12.715630   23.564750   25.656712
        35        35         1    0.000000    4.140792   23.564750   28.404563
        36        36         1    0.000000    1.959510   21.084250   25.069570
        37        37         1    0.000000    7.998873   23.564750   28.929522
        38        38         1    0.000000    5.817591   21.084250   25.594528
        39        39         1    0.000000    3.282116   23.564750   32.202332
        40        40         1    0.000000    1.100834   21.084250   28.867338
        41        41         1    0.000000    8.857549   28.525750   25.131753
        42        42         1    0.000000   12.715630   28.525750   25.656712
        43        43         1    0.000000    4.140792   28.525750   28.404563
        44        44         1    0.000000    1.959510   26.045250   25.069570
        45        45         1    0.000000    7.998873   28.525750   28.929522
        46        46         1    0.000000    5.817591   26.045250   25.594528
        47        47         1    0.000000    3.282116   28.525750   32.202332
        48        48         1    0.000000    1.100834   26.045250   28.867338
        49        49         1    0.000000    8.857549   33.486750   25.131753
        50        50         1    0.000000   12.715630   33.486750   25.656712
        51        51         1    0.000000    4.140792   33.486750   28.404563
        52        52         1    0.000000    1.959510   31.006250   25.069570
        53        53         1    0.000000    7.998873   33.486750   28.929522
        54        54         1    0.000000    5.817591   31.006250   25.594528
        55        55         1    0.000000    3.282116   33.486750   32.202332
        56        56         1    0.000000    1.100834   31.006250   28.867338
        57        57         1    0.000000    8.857549   38.447750   25.131753
        58        58         1    0.000000   12.715630   38.447750   25.656712
        59        59         1    0.000000    4.140792   38.447750   28.404563
        60        60         1    0.000000    1.959510   35.967250   25.069570
        61        61         1    0.000000    7.998873   38.447750   28.929522
        62        62         1    0.000000    5.817591   35.967250   25.594528
        63        63         1    0.000000    3.282116   38.447750   32.202332
        64        64         1    0.000000    1.100834   35.967250   28.867338
        65        65         1    0.000000   22.832864    3.720750   25.131753
        66        66         1    0.000000   26.690945    3.720750   25.656712
        67        67         1    0.000000   18.116107    3.720750   28.404563
        68        68         1    0.000000   15.934825    1.240250   25.069570
        69        69         1    0.000000   21.974188    3.720750   28.929522
        70        70         1    0.000000   19.792906    1.240250   25.594528
        71        71         1    0.000000   13.399350    3.720750   31.677373
        72        72         1    0.000000   11.218068    1.240250   28.342380
        73        73         1    0.000000   17.257431    3.720750   32.202332
        74        74         1    0.000000   15.076149    1.240250   28.867338
        75        75         1    0.000000    8.682593    3.720750   34.950183
        76        76         1    0.000000    6.501311    1.240250   31.615189
        77        77         1    0.000000   12.540674    3.720750   35.475141
        78        78         1    0.000000   10.359392    1.240250   32.140148
        79        79         1    0.000000    3.965836    3.720750   38.222993
        80        80         1    0.000000    1.784554    1.240250   34.887999
        81        81         1    0.000000    7.823917    3.720750   38.747951
        82        82         1    0.000000    5.642635    1.240250   35.412958
        83        83         1    0.000000    3.107160    3.720750   42.020761
        84        84         1    0.000000    0.925878    1.240250   38.685768
        85        85         1    0.000000   22.832864    8.681750   25.131753
        86        86         1    0.000000   26.690945    8.681750   25.656712
        87        87         1    0.000000   18.116107    8.681750   28.404563
        88        88         1    0.000000   15.934825    6.201250   25.069570
        89        89         1    0.000000   21.974188    8.681750   28.929522
        90        90         1    0.000000   19.792906    6.201250   25.594528
        91        91         1    0.000000   13.399350    8.681750   31.677373
        92        92         1    0.000000   11.218068    6.201250   28.342380
        93        93         1    0.000000   17.257431    8.681750   32.202332
        94        94         1    0.000000   15.076149    6.201250   28.867338
        95        95         1    0.000000    8.682593    8.681750   34.950183
        96        96         1    0.000000    6.501311    6.201250   31.615189
        97        97         1    0.000000   12.540674    8.681750   35.475141
        98        98         1    0.000000   10.359392    6.201250   32.140148
        99        99         1    0.000000    3.965836    8.681750   38.222993
       100       100         1    0.000000    1.784554    6.201250   34.887999
       101       101         1    0.000000    7.823917    8.681750   38.747951
       102       102         1    0.000000    5.642635    6.201250   35.412958
       103       103         1    0.000000    3.107160    8.681750   42.020761
       104       104         1    0.000000    0.925878    6.201250   38.685768
       105       105         1    0.000000   22.832864   13.642750   25.131753
       106       106         1    0.000000   26.690945   13.642750   25.656712
       107       107         1    0.000000   18.116107   13.642750   28.404563
       108       108         1    0.000000   15.934825   11.162250   25.069570
       109       109         1    0.000000   21.974188   13.642750   28.929522
       110       110         1    0.000000   19.792906   11.162250   25.594528
       111       111         1    0.000000   13.399350   13.642750   31.677373
       112       112         1    0.000000   11.218068   11.162250   28.342380
       113       113         1    0.000000   17.257431   13.642750   32.202332
       114       114         1    0.000000   15.076149   11.162250   28.867338
       115       115         1    0.000000    8.682593   13.642750   34.950183
       116       116         1    0.000000    6.501311   11.162250   31.615189
       117       117         1    0.000000   12.540674   13.642750   35.475141
       118       118         1    0.000000   10.359392   11.162250   32.140148
       119       119         1    0.000000    3.965836   13.642750   38.222993
       120       120         1    0.000000    1.784554   11.162250   34.887999
       121       121         1    0.000000    7.823917   13.642750   38.747951
       122       122         1    0.000000    5.642635   11.162250   35.412958
       123       123         1    0.000000    3.107160   13.642750   42.020761
       124       124         1    0.000000    0.925878   11.162250   38.685768
       125       125         1    0.000000   22.832864   18.603750   25.131753
       126       126         1    0.000000   26.690945   18.603750   25.656712
       127       127         1    0.000000   18.116107   18.603750   28.404563
       128       128         1    0.000000   15.934825   16.123250   25.069570
       129       129         1    0.000000   21.974188   18.603750   28.929522
       130       130         1    0.000000   19.792906   16.123250   25.594528
       131       131         1    0.000000   13.399350   18.603750   31.677373
       132       132         1    0.000000   11.218068   16.123250   28.342380
       133       133         1    0.000000   17.257431   18.603750   32.202332
       134       134         1    0.000000   15.076149   16.123250   28.867338
       135       135         1    0.000000    8.682593   18.603750   34.950183
       136       136         1    0.000000    6.501311   16.123250   31.615189
       137       137         1    0.000000   12.540674   18.603750   35.475141
       138       138         1    0.000000   10.359392   16.123250   32.140148
       139       139         1    0.000000    3.965836   18.603750   38.222993
       140       140         1    0.000000    1.784554   16.123250   34.887999
       141       141         1    0.000000    7.823917   18.603750   38.747951
       142       142         1    0.000000    5.642635   16.123250   35.412958
       143       143         1    0.000000    3.107160   18.603750   42.020761
       144       144         1    0.000000    0.925878   16.123250   38.685768
       145       145         1    0.000000   22.832864   23.564750   25.131753
       146       146         1    0.000000   26.690945   23.564750   25.656712
       147       147         1    0.000000   18.116107   23.564750   28.404563
       148       148         1    0.000000   15.934825   21.084250   25.069570
       149       149         1    0.000000   21.974188   23.564750   28.929522
       150       150         1    0.000000   19.792906   21.084250   25.594528
       151       151         1    0.000000   13.399350   23.564750   31.677373
       152       152         1    0.000000   11.218068   21.084250   28.342380
       153       153         1    0.000000   17.257431   23.564750   32.202332
       154       154         1    0.000000   15.076149   21.084250   28.867338
       155       155         1    0.000000    8.682593   23.564750   34.950183
       156       156         1    0.000000    6.501311   21.084250   31.615189
       157       157         1    0.000000   12.540674   23.564750   35.475141
       158       158         1    0.000000   10.359392   21.084250   32.140148
       159       159         1    0.000000    3.965836   23.564750   38.222993
       160       160         1    0.000000    1.784554   21.084250   34.887999
       161       161         1    0.000000    7.823917   23.564750   38.747951
       162       162         1    0.000000    5.642635   21.084250   35.412958
       163       163         1    0.000000    3.107160   23.564750   42.020761
       164       164         1    0.000000    0.925878   21.084250   38.685768
       165       165         1    0.000000   22.832864   28.525750   25.131753
       166       166         1    0.000000   26.690945   28.525750   25.656712
       167       167         1    0.000000   18.116107   28.525750   28.404563
       168       168         1    0.000000   15.934825   26.045250   25.069570
       169       169         1    0.000000   21.974188   28.525750   28.929522
       170       170         1    0.000000   19.792906   26.045250   25.594528
       171       171         1    0.000000   13.399350   28.525750   31.677373
       172       172         1    0.000000   11.218068   26.045250   28.342380
       173       173         1    0.000000   17.257431   28.525750   32.202332
       174       174         1    0.000000   15.076149   26.045250   28.867338
       175       175         1    0.000000    8.682593   28.525750   34.950183
       176       176         1    0.000000    6.501311   26.045250   31.615189
       177       177         1    0.000000   12.540674   28.525750   35.475141
       178       178         1    0.000000   10.359392   26.045250   32.140148
       179       179         1    0.000000    3.965836   28.525750   38.222993
       180       180         1    0.000000    1.784554   26.045250   34.887999
       181       181         1    0.000000    7.823917   28.525750   38.747951
       182       182         1    0.000000    5.642635   26.045250   35.412958
       183       183         1    0.000000    3.107160   28.525750   42.020761
       184       184         1    0.000000    0.925878   26.045250   38.685768
       185       185         1    0.000000   22.832864   33.486750   25.131753
       186       186         1    0.000000   26.690945   33.486750   25.656712
       187       187         1    0.000000   18.116107   33.486750   28.404563
       188       188         1    0.000000   15.934825   31.006250   25.069570
       189       189         1    0.000000   21.974188   33.486750   28.929522
       190       190         1    0.000000   19.792906   31.006250   25.594528
       191       191         1    0.000000   13.399350   33.486750   31.677373
       192       192         1    0.000000   11.218068   31.006250   28.342380
       193       193         1    0.000000   17.257431   33.486750   32.202332
       194       194         1    0.000000   15.076149   31.006250   28.867338
       195       195         1    0.000000    8.682593   33.486750   34.950183
       196       196         1    0.000000    6.501311   31.006250   31.615189
       197       197         1    0.000000   12.540674   33.486750   35.475141
       198       198         1    0.000000   10.359392   31.006250   32.140148
       199       199         1    0.000000    3.965836   33.486750   38.222993
       200       200         1    0.000000    1.784554   31.006250   34.887999
       201       201         1    0.000000    7.823917   33.486750   38.747951
       202       202         1    0.000000    5.642635   31.006250   35.412958
       203       203         1    0.000000    3.107160   33.486750   42.020761
       204       204         1    0.000000    0.925878   31.006250   38.685768
       205       205         1    0.000000   22.832864   38.447750   25.131753
       206       206         1    0.000000   26.690945   38.447750   25.656712
       207       207         1    0.000000   18.116107   38.447750   28.404563
       208       208         1    0.000000   15.934825   35.967250   25.069570
       209       209         1    0.000000   21.974188   38.447750   28.929522
       210       210         1    0.000000   19.792906   35.967250   25.594528
       211       211         1    0.000000   13.399350   38.447750   31.677373
       212       212         1    0.000000   11.218068   35.967250   28.342380
       213       213         1    0.000000   17.257431   38.447750   32.202332
       214       214         1    0.000000   15.076149   35.967250   28.867338
       215       215         1    0.000000    8.682593   38.447750   34.950183
       216       216         1    0.000000    6.501311   35.967250   31.615189
       217       217         1    0.000000   12.540674   38.447750   35.475141
       218       218         1    0.000000   10.359392   35.967250   32.140148
       219       219         1    0.000000    3.965836   38.447750   38.222993
       220       220         1    0.000000    1.784554   35.967250   34.887999
       221       221         1    0.000000    7.823917   38.447750   38.747951
       222       222         1    0.000000    5.642635   35.967250   35.412958
       223       223         1    0.000000    3.107160   38.447750   42.020761
       224       224         1    0.000000    0.925878   35.967250   38.685768
       225       225         1    0.000000   27.374664    3.720750   31.677373
       226       226         1    0.000000   25.193382    1.240250   28.342380
       227       227         1    0.000000   22.657907    3.720750   34.950183
       228       228         1    0.000000   20.476625    1.240250   31.615189
       229       229         1    0.000000   26.515988    3.720750   35.475141
       230       230         1    0.000000   24.334706    1.240250   32.140148
       231       231         1    0.000000   17.941150    3.720750   38.222993
       232       232         1    0.000000   15.759868    1.240250   34.887999
       233       233         1    0.000000   21.799231    3.720750   38.747951
       234       234         1    0.000000   19.617949    1.240250   35.412958
       235       235         1    0.000000   13.224393    3.720750   41.495802
       236       236         1    0.000000   11.043111    1.240250   38.160809
       237       237         1    0.000000   17.082474    3.720750   42.020761
       238       238         1    0.000000   14.901192    1.240250   38.685768
       239       239         1    0.000000    8.507636    3.720750   44.768612
       240       240         1    0.000000    6.326354    1.240250   41.433619
       241       241         1    0.000000   12.365717    3.720750   45.293571
       242       242         1    0.000000   10.184435    1.240250   41.958578
       243       243         1    0.000000    3.790879    3.720750   48.041422
       244       244         1    0.000000    1.609597    1.240250   44.706429
       245       245         1    0.000000    7.648960    3.720750   48.566381
       246       246         1    0.000000    5.467678    1.240250   45.231388
       247       247         1    0.000000    2.932203    3.720750   51.839191
       248       248         1    0.000000    0.750921    1.240250   48.504198
       249       249         1    0.000000   27.374664    8.681750   31.677373
       250       250         1    0.000000   25.193382    6.201250   28.342380
       251       251         1    0.000000   22.657907    8.681750   34.950183
       252       252         1    0.000000   20.476625    6.201250   31.615189
       253       253         1    0.000000   26.515988    8.681750   35.475141
       254       254         1    0.000000   24.334706    6.201250   32.140148
       255       255         1    0.000000   17.941150    8.681750   38.222993
       256       256         1    0.000000   15.759868    6.201250   34.887999
       257       257         1    0.000000   21.799231    8.681750   38.747951
       258       258         1    0.000000   19.617949    6.201250   35.412958
       259       259         1    0.000000   13.224393    8.681750   41.495802
       260       260         1    0.000000   11.043111    6.201250   38.160809
       261       261         1    0.000000   17.082474    8.681750   42.020761
       262       262         1    0.000000   14.901192    6.201250   38.685768
       263       263         1    0.000000    8.507636    8.681750   44.768612
       264       264         1    0.000000    6.326354    6.201250   41.433619
       265       265         1    0.000000   12.365717    8.681750   45.293571
       266       266         1    0.000000   10.184435    6.201250   41.958578
       267       267         1    0.000000    3.790879    8.681750   48.041422
       268       268         1    0.000000    1.609597    6.201250   44.706429
       269       269         1    0.000000    7.648960    8.681750   48.566381
       270       270         1    0.000000    5.467678    6.201250   45.231388
       271       271         1    0.000000    2.932203    8.681750   51.839191
       272       272         1    0.000000    0.750921    6.201250   48.504198
       273       273         1    0.000000   27.374664   13.642750   31.677373
       274       274         1    0.000000   25.193382   11.162250   28.342380
       275       275         1    0.000000   22.657907   13.642750   34.950183
       276       276         1    0.000000   20.476625   11.162250   31.615189
       277       277         1    0.000000   26.515988   13.642750   35.475141
       278       278         1    0.000000   24.334706   11.162250   32.140148
       279       279         1    0.000000   17.941150   13.642750   38.222993
       280       280         1    0.000000   15.759868   11.162250   34.887999
       281       281         1    0.000000   21.799231   13.642750   38.747951
       282       282         1    0.000000   19.617949   11.162250   35.412958
       283       283         1    0.000000   13.224393   13.642750   41.495802
       284       284         1    0.000000   11.043111   11.162250   38.160809
       285       285         1    0.000000   17.082474   13.642750   42.020761
       286       286         1    0.000000   14.901192   11.162250   38.685768
       287       287         1    0.000000    8.507636   13.642750   44.768612
       288       288         1    0.000000    6.326354   11.162250   41.433619
       289       289         1    0.000000   12.365717   13.642750   45.293571
       290       290         1    0.000000   10.184435   11.162250   41.958578
       291       291         1    0.000000    3.790879   13.642750   48.041422
       292       292         1    0.000000    1.609597   11.162250   44.706429
       293       293         1    0.000000    7.648960   13.642750   48.566381
       294       294         1    0.000000    5.467678   11.162250   45.231388
       295       295         1    0.000000    2.932203   13.642750   51.839191
       296       296         1    0.000000    0.750921   11.162250   48.504198
       297       297         1    0.000000   27.374664   18.603750   31.677373
       298       298         1    0.000000   25.193382   16.123250   28.342380
       299       299         1    0.000000   22.657907   18.603750   34.950183
       300       300         1    0.000000   20.476625   16.123250   31.615189
       301       301         1    0.000000   26.515988   18.603750   35.475141
       302       302         1    0.000000   24.334706   16.123250   32.140148
       303       303         1    0.000000   17.941150   18.603750   38.222993
       304       304         1    0.000000   15.759868   16.123250   34.887999
       305       305         1    0.000000   21.799231   18.603750   38.747951
       306       306         1    0.000000   19.617949   16.123250   35.412958
       307       307         1    0.000000   13.224393   18.603750   41.495802
       308       308         1    0.000000   11.043111   16.123250   38.160809
       309       309         1    0.000000   17.082474   18.603750   42.020761
       310       310         1    0.000000   14.901192   16.123250   38.685768
       311       311         1    0.000000    8.507636   18.603750   44.768612
       312       312         1    0.000000    6.326354   16.123250   41.433619
       313       313         1    0.000000   12.365717   18.603750   45.293571
       314       314         1    0.000000   10.184435   16.123250   41.958578
       315       315         1    0.000000    3.790879   18.603750   48.041422
       316       316         1    0.000000    1.609597   16.123250   44.706429
       317       317         1    0.000000    7.648960   18.603750   48.566381
       318       318         1    0.000000    5.467678   16.123250   45.231388
       319       319         1    0.000000    2.932203   18.603750   51.839191
       320       320         1    0.000000    0.750921   16.123250   48.504198
       321       321         1    0.000000   27.374664   23.564750   31.677373
       322       322         1    0.000000   25.193382   21.084250   28.342380
       323       323         1    0.000000   22.657907   23.564750   34.950183
       324       324         1    0.000000   20.476625   21.084250   31.615189
       325       325         1    0.000000   26.515988   23.564750   35.475141
       326       326         1    0.000000   24.334706   21.084250   32.140148
       327       327         1    0.000000   17.941150   23.564750   38.222993
       328       328         1    0.000000   15.759868   21.084250   34.887999
       329       329         1    0.000000   21.799231   23.564750   38.747951
       330       330         1    0.000000   19.617949   21.084250   35.412958
       331       331         1    0.000000   13.224393   23.564750   41.495802
       332       332         1    0.000000   11.043111   21.084250   38.160809
       333       333         1    0.000000   17.082474   23.564750   42.020761
       334       334         1    0.000000   14.901192   21.084250   38.685768
       335       335         1    0.000000    8.507636   23.564750   44.768612
       336       336         1    0.000000    6.326354   21.084250   41.433619
       337       337         1    0.000000   12.365717   23.564750   45.293571
       338       338         1    0.000000   10.184435   21.084250   41.958578
       339       339         1    0.000000    3.790879   23.564750   48.041422
       340       340         1    0.000000    1.609597   21.084250   44.706429
       341       341         1    0.000000    7.648960   23.564750   48.566381
       342       342         1    0.000000    5.467678   21.084250   45.231388
       343       343         1    0.000000    2.932203   23.564750   51.839191
       344       344         1    0.000000    0.750921   21.084250   48.504198
       345       345         1    0.000000   27.374664   28.525750   31.677373
       346       346         1    0.000000   25.193382   26.045250   28.342380
       347       347         1    0.000000   22.657907   28.525750   34.950183
       348       348         1    0.000000   20.476625   26.045250   31.615189
       349       349         1    0.000000   26.515988   28.525750   35.475141
       350       350         1    0.000000   24.334706   26.045250   32.140148
       351       351         1    0.000000   17.941150   28.525750   38.222993
       352       352         1    0.000000   15.759868   26.045250   34.887999
       353       353         1    0.000000   21.799231   28.525750   38.747951
       354       354         1    0.000000   19.617949   26.045250   35.412958
       355       355         1    0.000000   13.224393   28.525750   41.495802
       356       356         1    0.000000   11.043111   26.045250   38.160809
       357       357         1    0.000000   17.082474   28.525750   42.020761
       358       358         1    0.000000   14.901192   26.045250   38.685768
       359       359         1    0.000000    8.507636   28.525750   44.768612
       360       360         1    0.000000    6.326354   26.045250   41.433619
       361       361         1    0.000000   12.365717   28.525750   45.293571
       362       362         1    0.000000   10.184435   26.045250   41.958578
       363       363         1    0.000000    3.790879   28.525750   48.041422
       364       364         1    0.000000    1.609597   26.045250   44.706429
       365       365         1    0.000000    7.648960   28.525750   48.566381
       366       366         1    0.000000    5.467678   26.045250   45.231388
       367       367         1    0.000000    2.932203   28.525750   51.839191
       368       368         1    0.000000    0.750921   26.045250   48.504198
       369       369         1    0.000000   27.374664   33.486750   31.677373
       370       370         1    0.000000   25.193382   31.006250   28.342380
       371       371         1    0.000000   22.657907   33.486750   34.950183
       372       372         1    0.000000   20.476625   31.006250   31.615189
       373       373         1    0.000000   26.515988   33.486750   35.475141