LAMPPS input converted from DLPoly config file

     14142   atoms
      9044   bonds
      6250   angles
      1152   impropers

       5   atom types
       2   bond types
       2   angle types
       1   improper types

    0.000000   47.802000 xlo xhi
    0.000000   39.688000 ylo yhi
    0.000000   90.000000 zlo zhi


  Masses

       1   40.080000    
       2   12.010000    
       3   16.000000    
       4   16.000000    
       5   1.0100000    

   Atoms

         1         1         1    0.000000    4.659898    3.720750   32.137289
         2         2         1    0.000000    0.676398    1.240250   32.028210
         3         3         1    0.000000    7.290602    3.720750   29.266789
         4         4         1    0.000000    3.307102    1.240250   29.157710
         5         5         1    0.000000    4.659898    3.720750   37.878289
         6         6         1    0.000000    0.676398    1.240250   37.769210
         7         7         1    0.000000    7.290602    3.720750   35.007789
         8         8         1    0.000000    3.307102    1.240250   34.898710
         9         9         1    0.000000    4.659898    3.720750   43.619289
        10        10         1    0.000000    0.676398    1.240250   43.510210
        11        11         1    0.000000    7.290602    3.720750   40.748789
        12        12         1    0.000000    3.307102    1.240250   40.639710
        13        13         1    0.000000    4.659898    3.720750   49.360289
        14        14         1    0.000000    0.676398    1.240250   49.251210
        15        15         1    0.000000    7.290602    3.720750   46.489789
        16        16         1    0.000000    3.307102    1.240250   46.380710
        17        17         1    0.000000    4.659898    3.720750   55.101289
        18        18         1    0.000000    0.676398    1.240250   54.992210
        19        19         1    0.000000    7.290602    3.720750   52.230789
        20        20         1    0.000000    3.307102    1.240250   52.121710
        21        21         1    0.000000    4.659898    3.720750   60.842289
        22        22         1    0.000000    0.676398    1.240250   60.733210
        23        23         1    0.000000    7.290602    3.720750   57.971789
        24        24         1    0.000000    3.307102    1.240250   57.862710
        25        25         1    0.000000    4.659898    8.681750   32.137289
        26        26         1    0.000000    0.676398    6.201250   32.028210
        27        27         1    0.000000    7.290602    8.681750   29.266789
        28        28         1    0.000000    3.307102    6.201250   29.157710
        29        29         1    0.000000    4.659898    8.681750   37.878289
        30        30         1    0.000000    0.676398    6.201250   37.769210
        31        31         1    0.000000    7.290602    8.681750   35.007789
        32        32         1    0.000000    3.307102    6.201250   34.898710
        33        33         1    0.000000    4.659898    8.681750   43.619289
        34        34         1    0.000000    0.676398    6.201250   43.510210
        35        35         1    0.000000    7.290602    8.681750   40.748789
        36        36         1    0.000000    3.307102    6.201250   40.639710
        37        37         1    0.000000    4.659898    8.681750   49.360289
        38        38         1    0.000000    0.676398    6.201250   49.251210
        39        39         1    0.000000    7.290602    8.681750   46.489789
        40        40         1    0.000000    3.307102    6.201250   46.380710
        41        41         1    0.000000    4.659898    8.681750   55.101289
        42        42         1    0.000000    0.676398    6.201250   54.992210
        43        43         1    0.000000    7.290602    8.681750   52.230789
        44        44         1    0.000000    3.307102    6.201250   52.121710
        45        45         1    0.000000    4.659898    8.681750   60.842289
        46        46         1    0.000000    0.676398    6.201250   60.733210
        47        47         1    0.000000    7.290602    8.681750   57.971789
        48        48         1    0.000000    3.307102    6.201250   57.862710
        49        49         1    0.000000    4.659898   13.642750   32.137289
        50        50         1    0.000000    0.676398   11.162250   32.028210
        51        51         1    0.000000    7.290602   13.642750   29.266789
        52        52         1    0.000000    3.307102   11.162250   29.157710
        53        53         1    0.000000    4.659898   13.642750   37.878289
        54        54         1    0.000000    0.676398   11.162250   37.769210
        55        55         1    0.000000    7.290602   13.642750   35.007789
        56        56         1    0.000000    3.307102   11.162250   34.898710
        57        57         1    0.000000    4.659898   13.642750   43.619289
        58        58         1    0.000000    0.676398   11.162250   43.510210
        59        59         1    0.000000    7.290602   13.642750   40.748789
        60        60         1    0.000000    3.307102   11.162250   40.639710
        61        61         1    0.000000    4.659898   13.642750   49.360289
        62        62         1    0.000000    0.676398   11.162250   49.251210
        63        63         1    0.000000    7.290602   13.642750   46.489789
        64        64         1    0.000000    3.307102   11.162250   46.380710
        65        65         1    0.000000    4.659898   13.642750   55.101289
        66        66         1    0.000000    0.676398   11.162250   54.992210
        67        67         1    0.000000    7.290602   13.642750   52.230789
        68        68         1    0.000000    3.307102   11.162250   52.121710
        69        69         1    0.000000    4.659898   13.642750   60.842289
        70        70         1    0.000000    0.676398   11.162250   60.733210
        71        71         1    0.000000    7.290602   13.642750   57.971789
        72        72         1    0.000000    3.307102   11.162250   57.862710
        73        73         1    0.000000    4.659898   18.603750   32.137289
        74        74         1    0.000000    0.676398   16.123250   32.028210
        75        75         1    0.000000    7.290602   18.603750   29.266789
        76        76         1    0.000000    3.307102   16.123250   29.157710
        77        77         1    0.000000    4.659898   18.603750   37.878289
        78        78         1    0.000000    0.676398   16.123250   37.769210
        79        79         1    0.000000    7.290602   18.603750   35.007789
        80        80         1    0.000000    3.307102   16.123250   34.898710
        81        81         1    0.000000    4.659898   18.603750   43.619289
        82        82         1    0.000000    0.676398   16.123250   43.510210
        83        83         1    0.000000    7.290602   18.603750   40.748789
        84        84         1    0.000000    3.307102   16.123250   40.639710
        85        85         1    0.000000    4.659898   18.603750   49.360289
        86        86         1    0.000000    0.676398   16.123250   49.251210
        87        87         1    0.000000    7.290602   18.603750   46.489789
        88        88         1    0.000000    3.307102   16.123250   46.380710
        89        89         1    0.000000    4.659898   18.603750   55.101289
        90        90         1    0.000000    0.676398   16.123250   54.992210
        91        91         1    0.000000    7.290602   18.603750   52.230789
        92        92         1    0.000000    3.307102   16.123250   52.121710
        93        93         1    0.000000    4.659898   18.603750   60.842289
        94        94         1    0.000000    0.676398   16.123250   60.733210
        95        95         1    0.000000    7.290602   18.603750   57.971789
        96        96         1    0.000000    3.307102   16.123250   57.862710
        97        97         1    0.000000    4.659898   23.564750   32.137289
        98        98         1    0.000000    0.676398   21.084250   32.028210
        99        99         1    0.000000    7.290602   23.564750   29.266789
       100       100         1    0.000000    3.307102   21.084250   29.157710
       101       101         1    0.000000    4.659898   23.564750   37.878289
       102       102         1    0.000000    0.676398   21.084250   37.769210
       103       103         1    0.000000    7.290602   23.564750   35.007789
       104       104         1    0.000000    3.307102   21.084250   34.898710
       105       105         1    0.000000    4.659898   23.564750   43.619289
       106       106         1    0.000000    0.676398   21.084250   43.510210
       107       107         1    0.000000    7.290602   23.564750   40.748789
       108       108         1    0.000000    3.307102   21.084250   40.639710
       109       109         1    0.000000    4.659898   23.564750   49.360289
       110       110         1    0.000000    0.676398   21.084250   49.251210
       111       111         1    0.000000    7.290602   23.564750   46.489789
       112       112         1    0.000000    3.307102   21.084250   46.380710
       113       113         1    0.000000    4.659898   23.564750   55.101289
       114       114         1    0.000000    0.676398   21.084250   54.992210
       115       115         1    0.000000    7.290602   23.564750   52.230789
       116       116         1    0.000000    3.307102   21.084250   52.121710
       117       117         1    0.000000    4.659898   23.564750   60.842289
       118       118         1    0.000000    0.676398   21.084250   60.733210
       119       119         1    0.000000    7.290602   23.564750   57.971789
       120       120         1    0.000000    3.307102   21.084250   57.862710
       121       121         1    0.000000    4.659898   28.525750   32.137289
       122       122         1    0.000000    0.676398   26.045250   32.028210
       123       123         1    0.000000    7.290602   28.525750   29.266789
       124       124         1    0.000000    3.307102   26.045250   29.157710
       125       125         1    0.000000    4.659898   28.525750   37.878289
       126       126         1    0.000000    0.676398   26.045250   37.769210
       127       127         1    0.000000    7.290602   28.525750   35.007789
       128       128         1    0.000000    3.307102   26.045250   34.898710
       129       129         1    0.000000    4.659898   28.525750   43.619289
       130       130         1    0.000000    0.676398   26.045250   43.510210
       131       131         1    0.000000    7.290602   28.525750   40.748789
       132       132         1    0.000000    3.307102   26.045250   40.639710
       133       133         1    0.000000    4.659898   28.525750   49.360289
       134       134         1    0.000000    0.676398   26.045250   49.251210
       135       135         1    0.000000    7.290602   28.525750   46.489789
       136       136         1    0.000000    3.307102   26.045250   46.380710
       137       137         1    0.000000    4.659898   28.525750   55.101289
       138       138         1    0.000000    0.676398   26.045250   54.992210
       139       139         1    0.000000    7.290602   28.525750   52.230789
       140       140         1    0.000000    3.307102   26.045250   52.121710
       141       141         1    0.000000    4.659898   28.525750   60.842289
       142       142         1    0.000000    0.676398   26.045250   60.733210
       143       143         1    0.000000    7.290602   28.525750   57.971789
       144       144         1    0.000000    3.307102   26.045250   57.862710
       145       145         1    0.000000    4.659898   33.486750   32.137289
       146       146         1    0.000000    0.676398   31.006250   32.028210
       147       147         1    0.000000    7.290602   33.486750   29.266789
       148       148         1    0.000000    3.307102   31.006250   29.157710
       149       149         1    0.000000    4.659898   33.486750   37.878289
       150       150         1    0.000000    0.676398   31.006250   37.769210
       151       151         1    0.000000    7.290602   33.486750   35.007789
       152       152         1    0.000000    3.307102   31.006250   34.898710
       153       153         1    0.000000    4.659898   33.486750   43.619289
       154       154         1    0.000000    0.676398   31.006250   43.510210
       155       155         1    0.000000    7.290602   33.486750   40.748789
       156       156         1    0.000000    3.307102   31.006250   40.639710
       157       157         1    0.000000    4.659898   33.486750   49.360289
       158       158         1    0.000000    0.676398   31.006250   49.251210
       159       159         1    0.000000    7.290602   33.486750   46.489789
       160       160         1    0.000000    3.307102   31.006250   46.380710
       161       161         1    0.000000    4.659898   33.486750   55.101289
       162       162         1    0.000000    0.676398   31.006250   54.992210
       163       163         1    0.000000    7.290602   33.486750   52.230789
       164       164         1    0.000000    3.307102   31.006250   52.121710
       165       165         1    0.000000    4.659898   33.486750   60.842289
       166       166         1    0.000000    0.676398   31.006250   60.733210
       167       167         1    0.000000    7.290602   33.486750   57.971789
       168       168         1    0.000000    3.307102   31.006250   57.862710
       169       169         1    0.000000    4.659898   38.447750   32.137289
       170       170         1    0.000000    0.676398   35.967250   32.028210
       171       171         1    0.000000    7.290602   38.447750   29.266789
       172       172         1    0.000000    3.307102   35.967250   29.157710
       173       173         1    0.000000    4.659898   38.447750   37.878289
       174       174         1    0.000000    0.676398   35.967250   37.769210
       175       175         1    0.000000    7.290602   38.447750   35.007789
       176       176         1    0.000000    3.307102   35.967250   34.898710
       177       177         1    0.000000    4.659898   38.447750   43.619289
       178       178         1    0.000000    0.676398   35.967250   43.510210
       179       179         1    0.000000    7.290602   38.447750   40.748789
       180       180         1    0.000000    3.307102   35.967250   40.639710
       181       181         1    0.000000    4.659898   38.447750   49.360289
       182       182         1    0.000000    0.676398   35.967250   49.251210
       183       183         1    0.000000    7.290602   38.447750   46.489789
       184       184         1    0.000000    3.307102   35.967250   46.380710
       185       185         1    0.000000    4.659898   38.447750   55.101289
       186       186         1    0.000000    0.676398   35.967250   54.992210
       187       187         1    0.000000    7.290602   38.447750   52.230789
       188       188         1    0.000000    3.307102   35.967250   52.121710
       189       189         1    0.000000    4.659898   38.447750   60.842289
       190       190         1    0.000000    0.676398   35.967250   60.733210
       191       191         1    0.000000    7.290602   38.447750   57.971789
       192       192         1    0.000000    3.307102   35.967250   57.862710
       193       193         1    0.000000   12.626898    3.720750   32.137289
       194       194         1    0.000000    8.643398    1.240250   32.028210
       195       195         1    0.000000   15.257602    3.720750   29.266789
       196       196         1    0.000000   11.274102    1.240250   29.157710
       197       197         1    0.000000   12.626898    3.720750   37.878289
       198       198         1    0.000000    8.643398    1.240250   37.769210
       199       199         1    0.000000   15.257602    3.720750   35.007789
       200       200         1    0.000000   11.274102    1.240250   34.898710
       201       201         1    0.000000   12.626898    3.720750   43.619289
       202       202         1    0.000000    8.643398    1.240250   43.510210
       203       203         1    0.000000   15.257602    3.720750   40.748789
       204       204         1    0.000000   11.274102    1.240250   40.639710
       205       205         1    0.000000   12.626898    3.720750   49.360289
       206       206         1    0.000000    8.643398    1.240250   49.251210
       207       207         1    0.000000   15.257602    3.720750   46.489789
       208       208         1    0.000000   11.274102    1.240250   46.380710
       209       209         1    0.000000   12.626898    3.720750   55.101289
       210       210         1    0.000000    8.643398    1.240250   54.992210
       211       211         1    0.000000   15.257602    3.720750   52.230789
       212       212         1    0.000000   11.274102    1.240250   52.121710
       213       213         1    0.000000   12.626898    3.720750   60.842289
       214       214         1    0.000000    8.643398    1.240250   60.733210
       215       215         1    0.000000   15.257602    3.720750   57.971789
       216       216         1    0.000000   11.274102    1.240250   57.862710
       217       217         1    0.000000   12.626898    8.681750   32.137289
       218       218         1    0.000000    8.643398    6.201250   32.028210
       219       219         1    0.000000   15.257602    8.681750   29.266789
       220       220         1    0.000000   11.274102    6.201250   29.157710
       221       221         1    0.000000   12.626898    8.681750   37.878289
       222       222         1    0.000000    8.643398    6.201250   37.769210
       223       223         1    0.000000   15.257602    8.681750   35.007789
       224       224         1    0.000000   11.274102    6.201250   34.898710
       225       225         1    0.000000   12.626898    8.681750   43.619289
       226       226         1    0.000000    8.643398    6.201250   43.510210
       227       227         1    0.000000   15.257602    8.681750   40.748789
       228       228         1    0.000000   11.274102    6.201250   40.639710
       229       229         1    0.000000   12.626898    8.681750   49.360289
       230       230         1    0.000000    8.643398    6.201250   49.251210
       231       231         1    0.000000   15.257602    8.681750   46.489789
       232       232         1    0.000000   11.274102    6.201250   46.380710
       233       233         1    0.000000   12.626898    8.681750   55.101289
       234       234         1    0.000000    8.643398    6.201250   54.992210
       235       235         1    0.000000   15.257602    8.681750   52.230789
       236       236         1    0.000000   11.274102    6.201250   52.121710
       237       237         1    0.000000   12.626898    8.681750   60.842289
       238       238         1    0.000000    8.643398    6.201250   60.733210
       239       239         1    0.000000   15.257602    8.681750   57.971789
       240       240         1    0.000000   11.274102    6.201250   57.862710
       241       241         1    0.000000   12.626898   13.642750   32.137289
       242       242         1    0.000000    8.643398   11.162250   32.028210
       243       243         1    0.000000   15.257602   13.642750   29.266789
       244       244         1    0.000000   11.274102   11.162250   29.157710
       245       245         1    0.000000   12.626898   13.642750   37.878289
       246       246         1    0.000000    8.643398   11.162250   37.769210
       247       247         1    0.000000   15.257602   13.642750   35.007789
       248       248         1    0.000000   11.274102   11.162250   34.898710
       249       249         1    0.000000   12.626898   13.642750   43.619289
       250       250         1    0.000000    8.643398   11.162250   43.510210
       251       251         1    0.000000   15.257602   13.642750   40.748789
       252       252         1    0.000000   11.274102   11.162250   40.639710
       253       253         1    0.000000   12.626898   13.642750   49.360289
       254       254         1    0.000000    8.643398   11.162250   49.251210
       255       255         1    0.000000   15.257602   13.642750   46.489789
       256       256         1    0.000000   11.274102   11.162250   46.380710
       257       257         1    0.000000   12.626898   13.642750   55.101289
       258       258         1    0.000000    8.643398   11.162250   54.992210
       259       259         1    0.000000   15.257602   13.642750   52.230789
       260       260         1    0.000000   11.274102   11.162250   52.121710
       261       261         1    0.000000   12.626898   13.642750   60.842289
       262       262         1    0.000000    8.643398   11.162250   60.733210
       263       263         1    0.000000   15.257602   13.642750   57.971789
       264       264         1    0.000000   11.274102   11.162250   57.862710
       265       265         1    0.000000   12.626898   18.603750   32.137289
       266       266         1    0.000000    8.643398   16.123250   32.028210
       267       267         1    0.000000   15.257602   18.603750   29.266789
       268       268         1    0.000000   11.274102   16.123250   29.157710
       269       269         1    0.000000   12.626898   18.603750   37.878289
       270       270         1    0.000000    8.643398   16.123250   37.769210
       271       271         1    0.000000   15.257602   18.603750   35.007789
       272       272         1    0.000000   11.274102   16.123250   34.898710
       273       273         1    0.000000   12.626898   18.603750   43.619289
       274       274         1    0.000000    8.643398   16.123250   43.510210
       275       275         1    0.000000   15.257602   18.603750   40.748789
       276       276         1    0.000000   11.274102   16.123250   40.639710
       277       277         1    0.000000   12.626898   18.603750   49.360289
       278       278         1    0.000000    8.643398   16.123250   49.251210
       279       279         1    0.000000   15.257602   18.603750   46.489789
       280       280         1    0.000000   11.274102   16.123250   46.380710
       281       281         1    0.000000   12.626898   18.603750   55.101289
       282       282         1    0.000000    8.643398   16.123250   54.992210
       283       283         1    0.000000   15.257602   18.603750   52.230789
       284       284         1    0.000000   11.274102   16.123250   52.121710
       285       285         1    0.000000   12.626898   18.603750   60.842289
       286       286         1    0.000000    8.643398   16.123250   60.733210
       287       287         1    0.000000   15.257602   18.603750   57.971789
       288       288         1    0.000000   11.274102   16.123250   57.862710
       289       289         1    0.000000   12.626898   23.564750   32.137289
       290       290         1    0.000000    8.643398   21.084250   32.028210
       291       291         1    0.000000   15.257602   23.564750   29.266789
       292       292         1    0.000000   11.274102   21.084250   29.157710
       293       293         1    0.000000   12.626898   23.564750   37.878289
       294       294         1    0.000000    8.643398   21.084250   37.769210
       295       295         1    0.000000   15.257602   23.564750   35.007789
       296       296         1    0.000000   11.274102   21.084250   34.898710
       297       297         1    0.000000   12.626898   23.564750   43.619289
       298       298         1    0.000000    8.643398   21.084250   43.510210
       299       299         1    0.000000   15.257602   23.564750   40.748789
       300       300         1    0.000000   11.274102   21.084250   40.639710
       301       301         1    0.000000   12.626898   23.564750   49.360289
       302       302         1    0.000000    8.643398   21.084250   49.251210
       303       303         1    0.000000   15.257602   23.564750   46.489789
       304       304         1    0.000000   11.274102   21.084250   46.380710
       305       305         1    0.000000   12.626898   23.564750   55.101289
       306       306         1    0.000000    8.643398   21.084250   54.992210
       307       307         1    0.000000   15.257602   23.564750   52.230789
       308       308         1    0.000000   11.274102   21.084250   52.121710
       309       309         1    0.000000   12.626898   23.564750   60.842289
       310       310         1    0.000000    8.643398   21.084250   60.733210
       311       311         1    0.000000   15.257602   23.564750   57.971789
       312       312         1    0.000000   11.274102   21.084250   57.862710
       313       313         1    0.000000   12.626898   28.525750   32.137289
       314       314         1    0.000000    8.643398   26.045250   32.028210
       315       315         1    0.000000   15.257602   28.525750   29.266789
       316       316         1    0.000000   11.274102   26.045250   29.157710
       317       317         1    0.000000   12.626898   28.525750   37.878289
       318       318         1    0.000000    8.643398   26.045250   37.769210
       319       319         1    0.000000   15.257602   28.525750   35.007789
       320       320         1    0.000000   11.274102   26.045250   34.898710
       321       321         1    0.000000   12.626898   28.525750   43.619289
       322       322         1    0.000000    8.643398   26.045250   43.510210
       323       323         1    0.000000   15.257602   28.525750   40.748789
       324       324         1    0.000000   11.274102   26.045250   40.639710
       325       325         1    0.000000   12.626898   28.525750   49.360289
       326       326         1    0.000000    8.643398   26.045250   49.251210
       327       327         1    0.000000   15.257602   28.525750   46.489789
       328       328         1    0.000000   11.274102   26.045250   46.380710
       329       329         1    0.000000   12.626898   28.525750   55.101289
       330       330         1    0.000000    8.643398   26.045250   54.992210
       331       331         1    0.000000   15.257602   28.525750   52.230789
       332       332         1    0.000000   11.274102   26.045250   52.121710
       333       333         1    0.000000   12.626898   28.525750   60.842289
       334       334         1    0.000000    8.643398   26.045250   60.733210
       335       335         1    0.000000   15.257602   28.525750   57.971789
       336       336         1    0.000000   11.274102   26.045250   57.862710
       337       337         1    0.000000   12.626898   33.486750   32.137289
       338       338         1    0.000000    8.643398   31.006250   32.028210
       339       339         1    0.000000   15.257602   33.486750   29.266789
       340       340         1    0.000000   11.274102   31.006250   29.157710
       341       341         1    0.000000   12.626898   33.486750   37.878289
       342       342         1    0.000000    8.643398   31.006250   37.769210
       343       343         1    0.000000   15.257602   33.486750   35.007789
       344       344         1    0.000000   11.274102   31.006250   34.898710
       345       345         1    0.000000   12.626898   33.486750   43.619289
       346       346         1    0.000000    8.643398   31.006250   43.510210
       347       347         1    0.000000   15.257602   33.486750   40.748789
       348       348         1    0.000000   11.274102   31.006250   40.639710
       349       349         1    0.000000   12.626898   33.486750   49.360289
       350       350         1    0.000000    8.643398   31.006250   49.251210
       351       351         1    0.000000   15.257602   33.486750   46.489789
       352       352         1    0.000000   11.274102   31.006250   46.380710
       353       353         1    0.000000   12.626898   33.486750   55.101289
       354       354         1    0.000000    8.643398   31.006250   54.992210
       355       355         1    0.000000   15.257602   33.486750   52.230789
       356       356         1    0.000000   11.274102   31.006250   52.121710
       357       357         1    0.000000   12.626898   33.486750   60.842289
       358       358         1    0.000000    8.643398   31.006250   60.733210
       359       359         1    0.000000   15.257602   33.486750   57.971789
       360       360         1    0.000000   11.274102   31.006250   57.862710
       361       361         1    0.000000   12.626898   38.447750   32.137289
       362       362         1    0.000000    8.643398   35.967250   32.028210
       363       363         1    0.000000   15.257602   38.447750   29.266789
       364       364         1    0.000000   11.274102   35.967250   29.157710
       365       365         1    0.000000   12.626898   38.447750   37.878289
       366       366         1    0.000000    8.643398   35.967250   37.769210
       367       367         1    0.000000   15.257602   38.447750   35.007789
       368       368         1    0.000000   11.274102   35.967250   34.898710
       369       369         1    0.000000   12.626898   38.447750   43.619289
       370       370         1    0.000000    8.643398   35.967250   43.510210
       371       371         1    0.000000   15.257602   38.447750   40.748789
       372       372         1    0.000000   11.274102   35.967250   40.639710
       373       373         1    0.000000   12.626898   38.447750   49.360289