LAMPPS input converted from DLPoly config file

     16215   atoms
     10266   bonds
      7581   angles
      1632   impropers

       5   atom types
       2   bond types
       2   angle types
       1   improper types

    0.000000   45.852837 xlo xhi
    0.000000   47.802000 ylo yhi
    0.000000   90.000000 zlo zhi


  Masses

       1   40.080000    
       2   12.010000    
       3   16.000000    
       4   16.000000    
       5   1.0100000    

   Atoms

         1         1         1    0.000000    3.949601    4.659898   25.791819
         2         2         1    0.000000    1.857229    0.676398   24.455123
         3         3         1    0.000000    1.074395    4.659898   30.760952
         4         4         1    0.000000    2.511998    7.290602   28.276386
         5         5         1    0.000000    0.419626    3.307102   26.939689
         6         6         1    0.000000    8.243603    4.659898   28.276386
         7         7         1    0.000000    6.151231    0.676398   26.939689
         8         8         1    0.000000    9.681205    7.290602   25.791819
         9         9         1    0.000000    7.588833    3.307102   24.455123
        10        10         1    0.000000    5.368397    4.659898   33.245518
        11        11         1    0.000000    3.276025    0.676398   31.908821
        12        12         1    0.000000    6.806000    7.290602   30.760952
        13        13         1    0.000000    4.713628    3.307102   29.424255
        14        14         1    0.000000    2.493192    4.659898   38.214650
        15        15         1    0.000000    0.400820    0.676398   36.877953
        16        16         1    0.000000    3.930795    7.290602   35.730084
        17        17         1    0.000000    1.838422    3.307102   34.393387
        18        18         1    0.000000    1.055589    7.290602   40.699216
        19        19         1    0.000000   15.412810    4.659898   25.791819
        20        20         1    0.000000   13.320438    0.676398   24.455123
        21        21         1    0.000000   12.537605    4.659898   30.760952
        22        22         1    0.000000   10.445232    0.676398   29.424255
        23        23         1    0.000000   13.975207    7.290602   28.276386
        24        24         1    0.000000   11.882835    3.307102   26.939689
        25        25         1    0.000000    9.662399    4.659898   35.730084
        26        26         1    0.000000    7.570027    0.676398   34.393387
        27        27         1    0.000000   11.100002    7.290602   33.245518
        28        28         1    0.000000    9.007630    3.307102   31.908821
        29        29         1    0.000000    6.787194    4.659898   40.699216
        30        30         1    0.000000    4.694822    0.676398   39.362520
        31        31         1    0.000000    8.224796    7.290602   38.214650
        32        32         1    0.000000    6.132424    3.307102   36.877953
        33        33         1    0.000000    3.911988    4.659898   45.668348
        34        34         1    0.000000    1.819616    0.676398   44.331652
        35        35         1    0.000000    5.349591    7.290602   43.183782
        36        36         1    0.000000    3.257219    3.307102   41.847086
        37        37         1    0.000000    1.036783    4.659898   50.637480
        38        38         1    0.000000    2.474386    7.290602   48.152914
        39        39         1    0.000000    0.382014    3.307102   46.816218
        40        40         1    0.000000   19.706812    4.659898   28.276386
        41        41         1    0.000000   17.614440    0.676398   26.939689
        42        42         1    0.000000   21.144415    7.290602   25.791819
        43        43         1    0.000000   19.052042    3.307102   24.455123
        44        44         1    0.000000   16.831606    4.659898   33.245518
        45        45         1    0.000000   14.739234    0.676398   31.908821
        46        46         1    0.000000   18.269209    7.290602   30.760952
        47        47         1    0.000000   16.176837    3.307102   29.424255
        48        48         1    0.000000   13.956401    4.659898   38.214650
        49        49         1    0.000000   11.864029    0.676398   36.877953
        50        50         1    0.000000   15.394004    7.290602   35.730084
        51        51         1    0.000000   13.301632    3.307102   34.393387
        52        52         1    0.000000   11.081196    4.659898   43.183782
        53        53         1    0.000000    8.988824    0.676398   41.847086
        54        54         1    0.000000   12.518798    7.290602   40.699216
        55        55         1    0.000000   10.426426    3.307102   39.362520
        56        56         1    0.000000    8.205990    4.659898   48.152914
        57        57         1    0.000000    6.113618    0.676398   46.816218
        58        58         1    0.000000    9.643593    7.290602   45.668348
        59        59         1    0.000000    7.551221    3.307102   44.331652
        60        60         1    0.000000    5.330785    4.659898   53.122047
        61        61         1    0.000000    3.238413    0.676398   51.785350
        62        62         1    0.000000    6.768388    7.290602   50.637480
        63        63         1    0.000000    4.676015    3.307102   49.300784
        64        64         1    0.000000    2.455579    4.659898   58.091179
        65        65         1    0.000000    0.363207    0.676398   56.754482
        66        66         1    0.000000    3.893182    7.290602   55.606613
        67        67         1    0.000000    1.800810    3.307102   54.269916
        68        68         1    0.000000    1.017977    7.290602   60.575745
        69        69         1    0.000000   26.876019    4.659898   25.791819
        70        70         1    0.000000   24.783647    0.676398   24.455123
        71        71         1    0.000000   24.000814    4.659898   30.760952
        72        72         1    0.000000   21.908442    0.676398   29.424255
        73        73         1    0.000000   25.438416    7.290602   28.276386
        74        74         1    0.000000   23.346044    3.307102   26.939689
        75        75         1    0.000000   21.125608    4.659898   35.730084
        76        76         1    0.000000   19.033236    0.676398   34.393387
        77        77         1    0.000000   22.563211    7.290602   33.245518
        78        78         1    0.000000   20.470839    3.307102   31.908821
        79        79         1    0.000000   18.250403    4.659898   40.699216
        80        80         1    0.000000   16.158031    0.676398   39.362520
        81        81         1    0.000000   19.688006    7.290602   38.214650
        82        82         1    0.000000   17.595634    3.307102   36.877953
        83        83         1    0.000000   15.375198    4.659898   45.668348
        84        84         1    0.000000   13.282825    0.676398   44.331652
        85        85         1    0.000000   16.812800    7.290602   43.183782
        86        86         1    0.000000   14.720428    3.307102   41.847086
        87        87         1    0.000000   12.499992    4.659898   50.637480
        88        88         1    0.000000   10.407620    0.676398   49.300784
        89        89         1    0.000000   13.937595    7.290602   48.152914
        90        90         1    0.000000   11.845223    3.307102   46.816218
        91        91         1    0.000000    9.624787    4.659898   55.606613
        92        92         1    0.000000    7.532415    0.676398   54.269916
        93        93         1    0.000000   11.062389    7.290602   53.122047
        94        94         1    0.000000    8.970017    3.307102   51.785350
        95        95         1    0.000000    6.749581    4.659898   60.575745
        96        96         1    0.000000    4.657209    0.676398   59.239048
        97        97         1    0.000000    8.187184    7.290602   58.091179
        98        98         1    0.000000    6.094812    3.307102   56.754482
        99        99         1    0.000000    3.874376    4.659898   65.544877
       100       100         1    0.000000    1.782004    0.676398   64.208181
       101       101         1    0.000000    5.311979    7.290602   63.060311
       102       102         1    0.000000    3.219607    3.307102   61.723614
       103       103         1    0.000000   31.170021    4.659898   28.276386
       104       104         1    0.000000   29.077649    0.676398   26.939689
       105       105         1    0.000000   32.607624    7.290602   25.791819
       106       106         1    0.000000   30.515252    3.307102   24.455123
       107       107         1    0.000000   28.294816    4.659898   33.245518
       108       108         1    0.000000   26.202444    0.676398   31.908821
       109       109         1    0.000000   29.732418    7.290602   30.760952
       110       110         1    0.000000   27.640046    3.307102   29.424255
       111       111         1    0.000000   25.419610    4.659898   38.214650
       112       112         1    0.000000   23.327238    0.676398   36.877953
       113       113         1    0.000000   26.857213    7.290602   35.730084
       114       114         1    0.000000   24.764841    3.307102   34.393387
       115       115         1    0.000000   22.544405    4.659898   43.183782
       116       116         1    0.000000   20.452033    0.676398   41.847086
       117       117         1    0.000000   23.982008    7.290602   40.699216
       118       118         1    0.000000   21.889635    3.307102   39.362520
       119       119         1    0.000000   19.669199    4.659898   48.152914
       120       120         1    0.000000   17.576827    0.676398   46.816218
       121       121         1    0.000000   21.106802    7.290602   45.668348
       122       122         1    0.000000   19.014430    3.307102   44.331652
       123       123         1    0.000000   16.793994    4.659898   53.122047
       124       124         1    0.000000   14.701622    0.676398   51.785350
       125       125         1    0.000000   18.231597    7.290602   50.637480
       126       126         1    0.000000   16.139225    3.307102   49.300784
       127       127         1    0.000000   13.918789    4.659898   58.091179
       128       128         1    0.000000   11.826417    0.676398   56.754482
       129       129         1    0.000000   15.356391    7.290602   55.606613
       130       130         1    0.000000   13.264019    3.307102   54.269916
       131       131         1    0.000000   11.043583    4.659898   63.060311
       132       132         1    0.000000    8.951211    0.676398   61.723614
       133       133         1    0.000000   12.481186    7.290602   60.575745
       134       134         1    0.000000   10.388814    3.307102   59.239048
       135       135         1    0.000000    9.605981    7.290602   65.544877
       136       136         1    0.000000    7.513608    3.307102   64.208181
       137       137         1    0.000000   38.339228    4.659898   25.791819
       138       138         1    0.000000   36.246856    0.676398   24.455123
       139       139         1    0.000000   35.464023    4.659898   30.760952
       140       140         1    0.000000   33.371651    0.676398   29.424255
       141       141         1    0.000000   36.901626    7.290602   28.276386
       142       142         1    0.000000   34.809254    3.307102   26.939689
       143       143         1    0.000000   32.588818    4.659898   35.730084
       144       144         1    0.000000   30.496445    0.676398   34.393387
       145       145         1    0.000000   34.026420    7.290602   33.245518
       146       146         1    0.000000   31.934048    3.307102   31.908821
       147       147         1    0.000000   29.713612    4.659898   40.699216
       148       148         1    0.000000   27.621240    0.676398   39.362520
       149       149         1    0.000000   31.151215    7.290602   38.214650
       150       150         1    0.000000   29.058843    3.307102   36.877953
       151       151         1    0.000000   26.838407    4.659898   45.668348
       152       152         1    0.000000   24.746035    0.676398   44.331652
       153       153         1    0.000000   28.276009    7.290602   43.183782
       154       154         1    0.000000   26.183637    3.307102   41.847086
       155       155         1    0.000000   23.963201    4.659898   50.637480
       156       156         1    0.000000   21.870829    0.676398   49.300784
       157       157         1    0.000000   25.400804    7.290602   48.152914
       158       158         1    0.000000   23.308432    3.307102   46.816218
       159       159         1    0.000000   21.087996    4.659898   55.606613
       160       160         1    0.000000   18.995624    0.676398   54.269916
       161       161         1    0.000000   22.525599    7.290602   53.122047
       162       162         1    0.000000   20.433227    3.307102   51.785350
       163       163         1    0.000000   18.212790    4.659898   60.575745
       164       164         1    0.000000   16.120418    0.676398   59.239048
       165       165         1    0.000000   19.650393    7.290602   58.091179
       166       166         1    0.000000   17.558021    3.307102   56.754482
       167       167         1    0.000000   15.337585    4.659898   65.544877
       168       168         1    0.000000   13.245213    0.676398   64.208181
       169       169         1    0.000000   16.775188    7.290602   63.060311
       170       170         1    0.000000   14.682816    3.307102   61.723614
       171       171         1    0.000000   42.633230    4.659898   28.276386
       172       172         1    0.000000   40.540858    0.676398   26.939689
       173       173         1    0.000000   44.070833    7.290602   25.791819
       174       174         1    0.000000   41.978461    3.307102   24.455123
       175       175         1    0.000000   39.758025    4.659898   33.245518
       176       176         1    0.000000   37.665653    0.676398   31.908821
       177       177         1    0.000000   41.195628    7.290602   30.760952
       178       178         1    0.000000   39.103255    3.307102   29.424255
       179       179         1    0.000000   36.882819    4.659898   38.214650
       180       180         1    0.000000   34.790447    0.676398   36.877953
       181       181         1    0.000000   38.320422    7.290602   35.730084
       182       182         1    0.000000   36.228050    3.307102   34.393387
       183       183         1    0.000000   34.007614    4.659898   43.183782
       184       184         1    0.000000   31.915242    0.676398   41.847086
       185       185         1    0.000000   35.445217    7.290602   40.699216
       186       186         1    0.000000   33.352845    3.307102   39.362520
       187       187         1    0.000000   31.132409    4.659898   48.152914
       188       188         1    0.000000   29.040037    0.676398   46.816218
       189       189         1    0.000000   32.570011    7.290602   45.668348
       190       190         1    0.000000   30.477639    3.307102   44.331652
       191       191         1    0.000000   28.257203    4.659898   53.122047
       192       192         1    0.000000   26.164831    0.676398   51.785350
       193       193         1    0.000000   29.694806    7.290602   50.637480
       194       194         1    0.000000   27.602434    3.307102   49.300784
       195       195         1    0.000000   25.381998    4.659898   58.091179
       196       196         1    0.000000   23.289626    0.676398   56.754482
       197       197         1    0.000000   26.819600    7.290602   55.606613
       198       198         1    0.000000   24.727228    3.307102   54.269916
       199       199         1    0.000000   22.506792    4.659898   63.060311
       200       200         1    0.000000   20.414420    0.676398   61.723614
       201       201         1    0.000000   23.944395    7.290602   60.575745
       202       202         1    0.000000   21.852023    3.307102   59.239048
       203       203         1    0.000000   21.069190    7.290602   65.544877
       204       204         1    0.000000   18.976818    3.307102   64.208181
       205       205         1    0.000000   44.834860    0.676398   29.424255
       206       206         1    0.000000   44.052027    4.659898   35.730084
       207       207         1    0.000000   41.959655    0.676398   34.393387
       208       208         1    0.000000   45.489629    7.290602   33.245518
       209       209         1    0.000000   43.397257    3.307102   31.908821
       210       210         1    0.000000   41.176821    4.659898   40.699216
       211       211         1    0.000000   39.084449    0.676398   39.362520
       212       212         1    0.000000   42.614424    7.290602   38.214650
       213       213         1    0.000000   40.522052    3.307102   36.877953
       214       214         1    0.000000   38.301616    4.659898   45.668348
       215       215         1    0.000000   36.209244    0.676398   44.331652
       216       216         1    0.000000   39.739219    7.290602   43.183782
       217       217         1    0.000000   37.646847    3.307102   41.847086
       218       218         1    0.000000   35.426410    4.659898   50.637480
       219       219         1    0.000000   33.334038    0.676398   49.300784
       220       220         1    0.000000   36.864013    7.290602   48.152914
       221       221         1    0.000000   34.771641    3.307102   46.816218
       222       222         1    0.000000   32.551205    4.659898   55.606613
       223       223         1    0.000000   30.458833    0.676398   54.269916
       224       224         1    0.000000   33.988808    7.290602   53.122047
       225       225         1    0.000000   31.896436    3.307102   51.785350
       226       226         1    0.000000   29.676000    4.659898   60.575745
       227       227         1    0.000000   27.583628    0.676398   59.239048
       228       228         1    0.000000   31.113602    7.290602   58.091179
       229       229         1    0.000000   29.021230    3.307102   56.754482
       230       230         1    0.000000   26.800794    4.659898   65.544877
       231       231         1    0.000000   24.708422    0.676398   64.208181
       232       232         1    0.000000   28.238397    7.290602   63.060311
       233       233         1    0.000000   26.146025    3.307102   61.723614
       234       234         1    0.000000   45.470823    4.659898   43.183782
       235       235         1    0.000000   43.378451    0.676398   41.847086
       236       236         1    0.000000   44.816054    3.307102   39.362520
       237       237         1    0.000000   42.595618    4.659898   48.152914
       238       238         1    0.000000   40.503246    0.676398   46.816218
       239       239         1    0.000000   44.033220    7.290602   45.668348
       240       240         1    0.000000   41.940848    3.307102   44.331652
       241       241         1    0.000000   39.720412    4.659898   53.122047
       242       242         1    0.000000   37.628040    0.676398   51.785350
       243       243         1    0.000000   41.158015    7.290602   50.637480
       244       244         1    0.000000   39.065643    3.307102   49.300784
       245       245         1    0.000000   36.845207    4.659898   58.091179
       246       246         1    0.000000   34.752835    0.676398   56.754482
       247       247         1    0.000000   38.282810    7.290602   55.606613
       248       248         1    0.000000   36.190438    3.307102   54.269916
       249       249         1    0.000000   33.970002    4.659898   63.060311
       250       250         1    0.000000   31.877630    0.676398   61.723614
       251       251         1    0.000000   35.407604    7.290602   60.575745
       252       252         1    0.000000   33.315232    3.307102   59.239048
       253       253         1    0.000000   32.532399    7.290602   65.544877
       254       254         1    0.000000   30.440027    3.307102   64.208181
       255       255         1    0.000000   44.797248    0.676398   49.300784
       256       256         1    0.000000   44.014414    4.659898   55.606613
       257       257         1    0.000000   41.922042    0.676398   54.269916
       258       258         1    0.000000   45.452017    7.290602   53.122047
       259       259         1    0.000000   43.359645    3.307102   51.785350
       260       260         1    0.000000   41.139209    4.659898   60.575745
       261       261         1    0.000000   39.046837    0.676398   59.239048
       262       262         1    0.000000   42.576812    7.290602   58.091179
       263       263         1    0.000000   40.484440    3.307102   56.754482
       264       264         1    0.000000   38.264003    4.659898   65.544877
       265       265         1    0.000000   36.171631    0.676398   64.208181
       266       266         1    0.000000   39.701606    7.290602   63.060311
       267       267         1    0.000000   37.609234    3.307102   61.723614
       268       268         1    0.000000   45.433211    4.659898   63.060311
       269       269         1    0.000000   43.340839    0.676398   61.723614
       270       270         1    0.000000   44.778441    3.307102   59.239048
       271       271         1    0.000000   43.995608    7.290602   65.544877
       272       272         1    0.000000   41.903236    3.307102   64.208181
       273       273         1    0.000000    3.949601   12.626898   25.791819
       274       274         1    0.000000    1.857229    8.643398   24.455123
       275       275         1    0.000000    1.074395   12.626898   30.760952
       276       276         1    0.000000    2.511998   15.257602   28.276386
       277       277         1    0.000000    0.419626   11.274102   26.939689
       278       278         1    0.000000    8.243603   12.626898   28.276386
       279       279         1    0.000000    6.151231    8.643398   26.939689
       280       280         1    0.000000    9.681205   15.257602   25.791819
       281       281         1    0.000000    7.588833   11.274102   24.455123
       282       282         1    0.000000    5.368397   12.626898   33.245518
       283       283         1    0.000000    3.276025    8.643398   31.908821
       284       284         1    0.000000    6.806000   15.257602   30.760952
       285       285         1    0.000000    4.713628   11.274102   29.424255
       286       286         1    0.000000    2.493192   12.626898   38.214650
       287       287         1    0.000000    0.400820    8.643398   36.877953
       288       288         1    0.000000    3.930795   15.257602   35.730084
       289       289         1    0.000000    1.838422   11.274102   34.393387
       290       290         1    0.000000    1.055589   15.257602   40.699216
       291       291         1    0.000000   15.412810   12.626898   25.791819
       292       292         1    0.000000   13.320438    8.643398   24.455123
       293       293         1    0.000000   12.537605   12.626898   30.760952
       294       294         1    0.000000   10.445232    8.643398   29.424255
       295       295         1    0.000000   13.975207   15.257602   28.276386
       296       296         1    0.000000   11.882835   11.274102   26.939689
       297       297         1    0.000000    9.662399   12.626898   35.730084
       298       298         1    0.000000    7.570027    8.643398   34.393387
       299       299         1    0.000000   11.100002   15.257602   33.245518
       300       300         1    0.000000    9.007630   11.274102   31.908821
       301       301         1    0.000000    6.787194   12.626898   40.699216
       302       302         1    0.000000    4.694822    8.643398   39.362520
       303       303         1    0.000000    8.224796   15.257602   38.214650
       304       304         1    0.000000    6.132424   11.274102   36.877953
       305       305         1    0.000000    3.911988   12.626898   45.668348
       306       306         1    0.000000    1.819616    8.643398   44.331652
       307       307         1    0.000000    5.349591   15.257602   43.183782
       308       308         1    0.000000    3.257219   11.274102   41.847086
       309       309         1    0.000000    1.036783   12.626898   50.637480
       310       310         1    0.000000    2.474386   15.257602   48.152914
       311       311         1    0.000000    0.382014   11.274102   46.816218
       312       312         1    0.000000   19.706812   12.626898   28.276386
       313       313         1    0.000000   17.614440    8.643398   26.939689
       314       314         1    0.000000   21.144415   15.257602   25.791819
       315       315         1    0.000000   19.052042   11.274102   24.455123
       316       316         1    0.000000   16.831606   12.626898   33.245518
       317       317         1    0.000000   14.739234    8.643398   31.908821
       318       318         1    0.000000   18.269209   15.257602   30.760952
       319       319         1    0.000000   16.176837   11.274102   29.424255
       320       320         1    0.000000   13.956401   12.626898   38.214650
       321       321         1    0.000000   11.864029    8.643398   36.877953
       322       322         1    0.000000   15.394004   15.257602   35.730084
       323       323         1    0.000000   13.301632   11.274102   34.393387
       324       324         1    0.000000   11.081196   12.626898   43.183782
       325       325         1    0.000000    8.988824    8.643398   41.847086
       326       326         1    0.000000   12.518798   15.257602   40.699216
       327       327         1    0.000000   10.426426   11.274102   39.362520
       328       328         1    0.000000    8.205990   12.626898   48.152914
       329       329         1    0.000000    6.113618    8.643398   46.816218
       330       330         1    0.000000    9.643593   15.257602   45.668348
       331       331         1    0.000000    7.551221   11.274102   44.331652
       332       332         1    0.000000    5.330785   12.626898   53.122047
       333       333         1    0.000000    3.238413    8.643398   51.785350
       334       334         1    0.000000    6.768388   15.257602   50.637480
       335       335         1    0.000000    4.676015   11.274102   49.300784
       336       336         1    0.000000    2.455579   12.626898   58.091179
       337       337         1    0.000000    0.363207    8.643398   56.754482
       338       338         1    0.000000    3.893182   15.257602   55.606613
       339       339         1    0.000000    1.800810   11.274102   54.269916
       340       340         1    0.000000    1.017977   15.257602   60.575745
       341       341         1    0.000000   26.876019   12.626898   25.791819
       342       342         1    0.000000   24.783647    8.643398   24.455123
       343       343         1    0.000000   24.000814   12.626898   30.760952
       344       344         1    0.000000   21.908442    8.643398   29.424255
       345       345         1    0.000000   25.438416   15.257602   28.276386
       346       346         1    0.000000   23.346044   11.274102   26.939689
       347       347         1    0.000000   21.125608   12.626898   35.730084
       348       348         1    0.000000   19.033236    8.643398   34.393387
       349       349         1    0.000000   22.563211   15.257602   33.245518
       350       350         1    0.000000   20.470839   11.274102   31.908821
       351       351         1    0.000000   18.250403   12.626898   40.699216
       352       352         1    0.000000   16.158031    8.643398   39.362520
       353       353         1    0.000000   19.688006   15.257602   38.214650
       354       354         1    0.000000   17.595634   11.274102   36.877953
       355       355         1    0.000000   15.375198   12.626898   45.668348
       356       356         1    0.000000   13.282825    8.643398   44.331652
       357       357         1    0.000000   16.812800   15.257602   43.183782
       358       358         1    0.000000   14.720428   11.274102   41.847086
       359       359         1    0.000000   12.499992   12.626898   50.637480
       360       360         1    0.000000   10.407620    8.643398   49.300784
       361       361         1    0.000000   13.937595   15.257602   48.152914
       362       362         1    0.000000   11.845223   11.274102   46.816218
       363       363         1    0.000000    9.624787   12.626898   55.606613
       364       364         1    0.000000    7.532415    8.643398   54.269916
       365       365         1    0.000000   11.062389   15.257602   53.122047
       366       366         1    0.000000    8.970017   11.274102   51.785350
       367       367         1    0.000000    6.749581   12.626898   60.575745
       368       368         1    0.000000    4.657209    8.643398   59.239048
       369       369         1    0.000000    8.187184   15.257602   58.091179
       370       370         1    0.000000    6.094812   11.274102   56.754482
       371       371         1    0.000000    3.874376   12.626898   65.544877
       372       372         1    0.000000    1.782004    8.643398   64.208181
       373       373         1    0.000000    5.311979   15.257602   63.060311