LAMPPS input converted from DLPoly config file

     10988   atoms
      6952   bonds
      5156   angles
      1120   impropers

       5   atom types
       2   bond types
       2   angle types
       1   improper types

    0.000000   37.952856 xlo xhi
    0.000000   39.688000 ylo yhi
    0.000000   90.000000 zlo zhi


  Masses

       1   40.080000    
       2   12.010000    
       3   16.000000    
       4   16.000000    
       5   1.0100000    

   Atoms

         1         1         1    0.000000    2.095273    3.720750   25.729312
         2         2         1    0.000000    2.095273    8.681750   25.729312
         3         3         1    0.000000    2.095273   13.642750   25.729312
         4         4         1    0.000000    2.095273   18.603750   25.729312
         5         5         1    0.000000    2.095273   23.564750   25.729312
         6         6         1    0.000000    2.095273   28.525750   25.729312
         7         7         1    0.000000    2.095273   33.486750   25.729312
         8         8         1    0.000000    2.095273   38.447750   25.729312
         9         9         1    0.000000   17.361970    3.720750   24.546827
        10        10         1    0.000000   21.071701    3.720750   25.729312
        11        11         1    0.000000   12.151441    3.720750   26.957109
        12        12         1    0.000000   15.861171    3.720750   28.139594
        13        13         1    0.000000   14.287752    1.240250   24.478375
        14        14         1    0.000000    6.940911    3.720750   29.367392
        15        15         1    0.000000    5.367492    1.240250   25.706173
        16        16         1    0.000000   10.650641    3.720750   30.549876
        17        17         1    0.000000    9.077222    1.240250   26.888657
        18        18         1    0.000000    1.730381    3.720750   31.777674
        19        19         1    0.000000    0.156962    1.240250   28.116455
        20        20         1    0.000000    5.440112    3.720750   32.960158
        21        21         1    0.000000    3.866692    1.240250   29.298940
        22        22         1    0.000000    0.229582    3.720750   35.370440
        23        23         1    0.000000   17.361970    8.681750   24.546827
        24        24         1    0.000000   21.071701    8.681750   25.729312
        25        25         1    0.000000   12.151441    8.681750   26.957109
        26        26         1    0.000000   15.861171    8.681750   28.139594
        27        27         1    0.000000   14.287752    6.201250   24.478375
        28        28         1    0.000000    6.940911    8.681750   29.367392
        29        29         1    0.000000    5.367492    6.201250   25.706173
        30        30         1    0.000000   10.650641    8.681750   30.549876
        31        31         1    0.000000    9.077222    6.201250   26.888657
        32        32         1    0.000000    1.730381    8.681750   31.777674
        33        33         1    0.000000    0.156962    6.201250   28.116455
        34        34         1    0.000000    5.440112    8.681750   32.960158
        35        35         1    0.000000    3.866692    6.201250   29.298940
        36        36         1    0.000000    0.229582    8.681750   35.370440
        37        37         1    0.000000   17.361970   13.642750   24.546827
        38        38         1    0.000000   21.071701   13.642750   25.729312
        39        39         1    0.000000   12.151441   13.642750   26.957109
        40        40         1    0.000000   15.861171   13.642750   28.139594
        41        41         1    0.000000   14.287752   11.162250   24.478375
        42        42         1    0.000000    6.940911   13.642750   29.367392
        43        43         1    0.000000    5.367492   11.162250   25.706173
        44        44         1    0.000000   10.650641   13.642750   30.549876
        45        45         1    0.000000    9.077222   11.162250   26.888657
        46        46         1    0.000000    1.730381   13.642750   31.777674
        47        47         1    0.000000    0.156962   11.162250   28.116455
        48        48         1    0.000000    5.440112   13.642750   32.960158
        49        49         1    0.000000    3.866692   11.162250   29.298940
        50        50         1    0.000000    0.229582   13.642750   35.370440
        51        51         1    0.000000   17.361970   18.603750   24.546827
        52        52         1    0.000000   21.071701   18.603750   25.729312
        53        53         1    0.000000   12.151441   18.603750   26.957109
        54        54         1    0.000000   15.861171   18.603750   28.139594
        55        55         1    0.000000   14.287752   16.123250   24.478375
        56        56         1    0.000000    6.940911   18.603750   29.367392
        57        57         1    0.000000    5.367492   16.123250   25.706173
        58        58         1    0.000000   10.650641   18.603750   30.549876
        59        59         1    0.000000    9.077222   16.123250   26.888657
        60        60         1    0.000000    1.730381   18.603750   31.777674
        61        61         1    0.000000    0.156962   16.123250   28.116455
        62        62         1    0.000000    5.440112   18.603750   32.960158
        63        63         1    0.000000    3.866692   16.123250   29.298940
        64        64         1    0.000000    0.229582   18.603750   35.370440
        65        65         1    0.000000   17.361970   23.564750   24.546827
        66        66         1    0.000000   21.071701   23.564750   25.729312
        67        67         1    0.000000   12.151441   23.564750   26.957109
        68        68         1    0.000000   15.861171   23.564750   28.139594
        69        69         1    0.000000   14.287752   21.084250   24.478375
        70        70         1    0.000000    6.940911   23.564750   29.367392
        71        71         1    0.000000    5.367492   21.084250   25.706173
        72        72         1    0.000000   10.650641   23.564750   30.549876
        73        73         1    0.000000    9.077222   21.084250   26.888657
        74        74         1    0.000000    1.730381   23.564750   31.777674
        75        75         1    0.000000    0.156962   21.084250   28.116455
        76        76         1    0.000000    5.440112   23.564750   32.960158
        77        77         1    0.000000    3.866692   21.084250   29.298940
        78        78         1    0.000000    0.229582   23.564750   35.370440
        79        79         1    0.000000   17.361970   28.525750   24.546827
        80        80         1    0.000000   21.071701   28.525750   25.729312
        81        81         1    0.000000   12.151441   28.525750   26.957109
        82        82         1    0.000000   15.861171   28.525750   28.139594
        83        83         1    0.000000   14.287752   26.045250   24.478375
        84        84         1    0.000000    6.940911   28.525750   29.367392
        85        85         1    0.000000    5.367492   26.045250   25.706173
        86        86         1    0.000000   10.650641   28.525750   30.549876
        87        87         1    0.000000    9.077222   26.045250   26.888657
        88        88         1    0.000000    1.730381   28.525750   31.777674
        89        89         1    0.000000    0.156962   26.045250   28.116455
        90        90         1    0.000000    5.440112   28.525750   32.960158
        91        91         1    0.000000    3.866692   26.045250   29.298940
        92        92         1    0.000000    0.229582   28.525750   35.370440
        93        93         1    0.000000   17.361970   33.486750   24.546827
        94        94         1    0.000000   21.071701   33.486750   25.729312
        95        95         1    0.000000   12.151441   33.486750   26.957109
        96        96         1    0.000000   15.861171   33.486750   28.139594
        97        97         1    0.000000   14.287752   31.006250   24.478375
        98        98         1    0.000000    6.940911   33.486750   29.367392
        99        99         1    0.000000    5.367492   31.006250   25.706173
       100       100         1    0.000000   10.650641   33.486750   30.549876
       101       101         1    0.000000    9.077222   31.006250   26.888657
       102       102         1    0.000000    1.730381   33.486750   31.777674
       103       103         1    0.000000    0.156962   31.006250   28.116455
       104       104         1    0.000000    5.440112   33.486750   32.960158
       105       105         1    0.000000    3.866692   31.006250   29.298940
       106       106         1    0.000000    0.229582   33.486750   35.370440
       107       107         1    0.000000   17.361970   38.447750   24.546827
       108       108         1    0.000000   21.071701   38.447750   25.729312
       109       109         1    0.000000   12.151441   38.447750   26.957109
       110       110         1    0.000000   15.861171   38.447750   28.139594
       111       111         1    0.000000   14.287752   35.967250   24.478375
       112       112         1    0.000000    6.940911   38.447750   29.367392
       113       113         1    0.000000    5.367492   35.967250   25.706173
       114       114         1    0.000000   10.650641   38.447750   30.549876
       115       115         1    0.000000    9.077222   35.967250   26.888657
       116       116         1    0.000000    1.730381   38.447750   31.777674
       117       117         1    0.000000    0.156962   35.967250   28.116455
       118       118         1    0.000000    5.440112   38.447750   32.960158
       119       119         1    0.000000    3.866692   35.967250   29.298940
       120       120         1    0.000000    0.229582   38.447750   35.370440
       121       121         1    0.000000   36.338398    3.720750   24.546827
       122       122         1    0.000000   31.127869    3.720750   26.957109
       123       123         1    0.000000   34.837599    3.720750   28.139594
       124       124         1    0.000000   33.264180    1.240250   24.478375
       125       125         1    0.000000   25.917339    3.720750   29.367392
       126       126         1    0.000000   24.343920    1.240250   25.706173
       127       127         1    0.000000   29.627069    3.720750   30.549876
       128       128         1    0.000000   28.053650    1.240250   26.888657
       129       129         1    0.000000   20.706809    3.720750   31.777674
       130       130         1    0.000000   19.133390    1.240250   28.116455
       131       131         1    0.000000   24.416540    3.720750   32.960158
       132       132         1    0.000000   22.843120    1.240250   29.298940
       133       133         1    0.000000   15.496279    3.720750   34.187956
       134       134         1    0.000000   13.922860    1.240250   30.526737
       135       135         1    0.000000   19.206010    3.720750   35.370440
       136       136         1    0.000000   17.632591    1.240250   31.709222
       137       137         1    0.000000   10.285749    3.720750   36.598238
       138       138         1    0.000000    8.712330    1.240250   32.937020
       139       139         1    0.000000   13.995480    3.720750   37.780723
       140       140         1    0.000000   12.422061    1.240250   34.119504
       141       141         1    0.000000    5.075220    3.720750   39.008520
       142       142         1    0.000000    3.501800    1.240250   35.347302
       143       143         1    0.000000    8.784950    3.720750   40.191005
       144       144         1    0.000000    7.211531    1.240250   36.529786
       145       145         1    0.000000    3.574421    3.720750   42.601287
       146       146         1    0.000000    2.001001    1.240250   38.940068
       147       147         1    0.000000   36.338398    8.681750   24.546827
       148       148         1    0.000000   31.127869    8.681750   26.957109
       149       149         1    0.000000   34.837599    8.681750   28.139594
       150       150         1    0.000000   33.264180    6.201250   24.478375
       151       151         1    0.000000   25.917339    8.681750   29.367392
       152       152         1    0.000000   24.343920    6.201250   25.706173
       153       153         1    0.000000   29.627069    8.681750   30.549876
       154       154         1    0.000000   28.053650    6.201250   26.888657
       155       155         1    0.000000   20.706809    8.681750   31.777674
       156       156         1    0.000000   19.133390    6.201250   28.116455
       157       157         1    0.000000   24.416540    8.681750   32.960158
       158       158         1    0.000000   22.843120    6.201250   29.298940
       159       159         1    0.000000   15.496279    8.681750   34.187956
       160       160         1    0.000000   13.922860    6.201250   30.526737
       161       161         1    0.000000   19.206010    8.681750   35.370440
       162       162         1    0.000000   17.632591    6.201250   31.709222
       163       163         1    0.000000   10.285749    8.681750   36.598238
       164       164         1    0.000000    8.712330    6.201250   32.937020
       165       165         1    0.000000   13.995480    8.681750   37.780723
       166       166         1    0.000000   12.422061    6.201250   34.119504
       167       167         1    0.000000    5.075220    8.681750   39.008520
       168       168         1    0.000000    3.501800    6.201250   35.347302
       169       169         1    0.000000    8.784950    8.681750   40.191005
       170       170         1    0.000000    7.211531    6.201250   36.529786
       171       171         1    0.000000    3.574421    8.681750   42.601287
       172       172         1    0.000000    2.001001    6.201250   38.940068
       173       173         1    0.000000   36.338398   13.642750   24.546827
       174       174         1    0.000000   31.127869   13.642750   26.957109
       175       175         1    0.000000   34.837599   13.642750   28.139594
       176       176         1    0.000000   33.264180   11.162250   24.478375
       177       177         1    0.000000   25.917339   13.642750   29.367392
       178       178         1    0.000000   24.343920   11.162250   25.706173
       179       179         1    0.000000   29.627069   13.642750   30.549876
       180       180         1    0.000000   28.053650   11.162250   26.888657
       181       181         1    0.000000   20.706809   13.642750   31.777674
       182       182         1    0.000000   19.133390   11.162250   28.116455
       183       183         1    0.000000   24.416540   13.642750   32.960158
       184       184         1    0.000000   22.843120   11.162250   29.298940
       185       185         1    0.000000   15.496279   13.642750   34.187956
       186       186         1    0.000000   13.922860   11.162250   30.526737
       187       187         1    0.000000   19.206010   13.642750   35.370440
       188       188         1    0.000000   17.632591   11.162250   31.709222
       189       189         1    0.000000   10.285749   13.642750   36.598238
       190       190         1    0.000000    8.712330   11.162250   32.937020
       191       191         1    0.000000   13.995480   13.642750   37.780723
       192       192         1    0.000000   12.422061   11.162250   34.119504
       193       193         1    0.000000    5.075220   13.642750   39.008520
       194       194         1    0.000000    3.501800   11.162250   35.347302
       195       195         1    0.000000    8.784950   13.642750   40.191005
       196       196         1    0.000000    7.211531   11.162250   36.529786
       197       197         1    0.000000    3.574421   13.642750   42.601287
       198       198         1    0.000000    2.001001   11.162250   38.940068
       199       199         1    0.000000   36.338398   18.603750   24.546827
       200       200         1    0.000000   31.127869   18.603750   26.957109
       201       201         1    0.000000   34.837599   18.603750   28.139594
       202       202         1    0.000000   33.264180   16.123250   24.478375
       203       203         1    0.000000   25.917339   18.603750   29.367392
       204       204         1    0.000000   24.343920   16.123250   25.706173
       205       205         1    0.000000   29.627069   18.603750   30.549876
       206       206         1    0.000000   28.053650   16.123250   26.888657
       207       207         1    0.000000   20.706809   18.603750   31.777674
       208       208         1    0.000000   19.133390   16.123250   28.116455
       209       209         1    0.000000   24.416540   18.603750   32.960158
       210       210         1    0.000000   22.843120   16.123250   29.298940
       211       211         1    0.000000   15.496279   18.603750   34.187956
       212       212         1    0.000000   13.922860   16.123250   30.526737
       213       213         1    0.000000   19.206010   18.603750   35.370440
       214       214         1    0.000000   17.632591   16.123250   31.709222
       215       215         1    0.000000   10.285749   18.603750   36.598238
       216       216         1    0.000000    8.712330   16.123250   32.937020
       217       217         1    0.000000   13.995480   18.603750   37.780723
       218       218         1    0.000000   12.422061   16.123250   34.119504
       219       219         1    0.000000    5.075220   18.603750   39.008520
       220       220         1    0.000000    3.501800   16.123250   35.347302
       221       221         1    0.000000    8.784950   18.603750   40.191005
       222       222         1    0.000000    7.211531   16.123250   36.529786
       223       223         1    0.000000    3.574421   18.603750   42.601287
       224       224         1    0.000000    2.001001   16.123250   38.940068
       225       225         1    0.000000   36.338398   23.564750   24.546827
       226       226         1    0.000000   31.127869   23.564750   26.957109
       227       227         1    0.000000   34.837599   23.564750   28.139594
       228       228         1    0.000000   33.264180   21.084250   24.478375
       229       229         1    0.000000   25.917339   23.564750   29.367392
       230       230         1    0.000000   24.343920   21.084250   25.706173
       231       231         1    0.000000   29.627069   23.564750   30.549876
       232       232         1    0.000000   28.053650   21.084250   26.888657
       233       233         1    0.000000   20.706809   23.564750   31.777674
       234       234         1    0.000000   19.133390   21.084250   28.116455
       235       235         1    0.000000   24.416540   23.564750   32.960158
       236       236         1    0.000000   22.843120   21.084250   29.298940
       237       237         1    0.000000   15.496279   23.564750   34.187956
       238       238         1    0.000000   13.922860   21.084250   30.526737
       239       239         1    0.000000   19.206010   23.564750   35.370440
       240       240         1    0.000000   17.632591   21.084250   31.709222
       241       241         1    0.000000   10.285749   23.564750   36.598238
       242       242         1    0.000000    8.712330   21.084250   32.937020
       243       243         1    0.000000   13.995480   23.564750   37.780723
       244       244         1    0.000000   12.422061   21.084250   34.119504
       245       245         1    0.000000    5.075220   23.564750   39.008520
       246       246         1    0.000000    3.501800   21.084250   35.347302
       247       247         1    0.000000    8.784950   23.564750   40.191005
       248       248         1    0.000000    7.211531   21.084250   36.529786
       249       249         1    0.000000    3.574421   23.564750   42.601287
       250       250         1    0.000000    2.001001   21.084250   38.940068
       251       251         1    0.000000   36.338398   28.525750   24.546827
       252       252         1    0.000000   31.127869   28.525750   26.957109
       253       253         1    0.000000   34.837599   28.525750   28.139594
       254       254         1    0.000000   33.264180   26.045250   24.478375
       255       255         1    0.000000   25.917339   28.525750   29.367392
       256       256         1    0.000000   24.343920   26.045250   25.706173
       257       257         1    0.000000   29.627069   28.525750   30.549876
       258       258         1    0.000000   28.053650   26.045250   26.888657
       259       259         1    0.000000   20.706809   28.525750   31.777674
       260       260         1    0.000000   19.133390   26.045250   28.116455
       261       261         1    0.000000   24.416540   28.525750   32.960158
       262       262         1    0.000000   22.843120   26.045250   29.298940
       263       263         1    0.000000   15.496279   28.525750   34.187956
       264       264         1    0.000000   13.922860   26.045250   30.526737
       265       265         1    0.000000   19.206010   28.525750   35.370440
       266       266         1    0.000000   17.632591   26.045250   31.709222
       267       267         1    0.000000   10.285749   28.525750   36.598238
       268       268         1    0.000000    8.712330   26.045250   32.937020
       269       269         1    0.000000   13.995480   28.525750   37.780723
       270       270         1    0.000000   12.422061   26.045250   34.119504
       271       271         1    0.000000    5.075220   28.525750   39.008520
       272       272         1    0.000000    3.501800   26.045250   35.347302
       273       273         1    0.000000    8.784950   28.525750   40.191005
       274       274         1    0.000000    7.211531   26.045250   36.529786
       275       275         1    0.000000    3.574421   28.525750   42.601287
       276       276         1    0.000000    2.001001   26.045250   38.940068
       277       277         1    0.000000   36.338398   33.486750   24.546827
       278       278         1    0.000000   31.127869   33.486750   26.957109
       279       279         1    0.000000   34.837599   33.486750   28.139594
       280       280         1    0.000000   33.264180   31.006250   24.478375
       281       281         1    0.000000   25.917339   33.486750   29.367392
       282       282         1    0.000000   24.343920   31.006250   25.706173
       283       283         1    0.000000   29.627069   33.486750   30.549876
       284       284         1    0.000000   28.053650   31.006250   26.888657
       285       285         1    0.000000   20.706809   33.486750   31.777674
       286       286         1    0.000000   19.133390   31.006250   28.116455
       287       287         1    0.000000   24.416540   33.486750   32.960158
       288       288         1    0.000000   22.843120   31.006250   29.298940
       289       289         1    0.000000   15.496279   33.486750   34.187956
       290       290         1    0.000000   13.922860   31.006250   30.526737
       291       291         1    0.000000   19.206010   33.486750   35.370440
       292       292         1    0.000000   17.632591   31.006250   31.709222
       293       293         1    0.000000   10.285749   33.486750   36.598238
       294       294         1    0.000000    8.712330   31.006250   32.937020
       295       295         1    0.000000   13.995480   33.486750   37.780723
       296       296         1    0.000000   12.422061   31.006250   34.119504
       297       297         1    0.000000    5.075220   33.486750   39.008520
       298       298         1    0.000000    3.501800   31.006250   35.347302
       299       299         1    0.000000    8.784950   33.486750   40.191005
       300       300         1    0.000000    7.211531   31.006250   36.529786
       301       301         1    0.000000    3.574421   33.486750   42.601287
       302       302         1    0.000000    2.001001   31.006250   38.940068
       303       303         1    0.000000   36.338398   38.447750   24.546827
       304       304         1    0.000000   31.127869   38.447750   26.957109
       305       305         1    0.000000   34.837599   38.447750   28.139594
       306       306         1    0.000000   33.264180   35.967250   24.478375
       307       307         1    0.000000   25.917339   38.447750   29.367392
       308       308         1    0.000000   24.343920   35.967250   25.706173
       309       309         1    0.000000   29.627069   38.447750   30.549876
       310       310         1    0.000000   28.053650   35.967250   26.888657
       311       311         1    0.000000   20.706809   38.447750   31.777674
       312       312         1    0.000000   19.133390   35.967250   28.116455
       313       313         1    0.000000   24.416540   38.447750   32.960158
       314       314         1    0.000000   22.843120   35.967250   29.298940
       315       315         1    0.000000   15.496279   38.447750   34.187956
       316       316         1    0.000000   13.922860   35.967250   30.526737
       317       317         1    0.000000   19.206010   38.447750   35.370440
       318       318         1    0.000000   17.632591   35.967250   31.709222
       319       319         1    0.000000   10.285749   38.447750   36.598238
       320       320         1    0.000000    8.712330   35.967250   32.937020
       321       321         1    0.000000   13.995480   38.447750   37.780723
       322       322         1    0.000000   12.422061   35.967250   34.119504
       323       323         1    0.000000    5.075220   38.447750   39.008520
       324       324         1    0.000000    3.501800   35.967250   35.347302
       325       325         1    0.000000    8.784950   38.447750   40.191005
       326       326         1    0.000000    7.211531   35.967250   36.529786
       327       327         1    0.000000    3.574421   38.447750   42.601287
       328       328         1    0.000000    2.001001   35.967250   38.940068
       329       329         1    0.000000   34.472707    3.720750   34.187956
       330       330         1    0.000000   32.899288    1.240250   30.526737
       331       331         1    0.000000   36.609019    1.240250   31.709222
       332       332         1    0.000000   29.262177    3.720750   36.598238
       333       333         1    0.000000   27.688758    1.240250   32.937020
       334       334         1    0.000000   32.971908    3.720750   37.780723
       335       335         1    0.000000   31.398489    1.240250   34.119504
       336       336         1    0.000000   24.051648    3.720750   39.008520
       337       337         1    0.000000   22.478228    1.240250   35.347302
       338       338         1    0.000000   27.761378    3.720750   40.191005
       339       339         1    0.000000   26.187959    1.240250   36.529786
       340       340         1    0.000000   18.841118    3.720750   41.418803
       341       341         1    0.000000   17.267699    1.240250   37.757584
       342       342         1    0.000000   22.550848    3.720750   42.601287
       343       343         1    0.000000   20.977429    1.240250   38.940068
       344       344         1    0.000000   13.630588    3.720750   43.829085
       345       345         1    0.000000   12.057169    1.240250   40.167866
       346       346         1    0.000000   17.340319    3.720750   45.011569
       347       347         1    0.000000   15.766899    1.240250   41.350351
       348       348         1    0.000000    8.420058    3.720750   46.239367
       349       349         1    0.000000    6.846639    1.240250   42.578148
       350       350         1    0.000000   12.129789    3.720750   47.421852
       351       351         1    0.000000   10.556370    1.240250   43.760633
       352       352         1    0.000000    3.209529    3.720750   48.649649
       353       353         1    0.000000    1.636109    1.240250   44.988431
       354       354         1    0.000000    6.919259    3.720750   49.832134
       355       355         1    0.000000    5.345840    1.240250   46.170915
       356       356         1    0.000000    1.708729    3.720750   52.242416
       357       357         1    0.000000    0.135310    1.240250   48.581197
       358       358         1    0.000000   34.472707    8.681750   34.187956
       359       359         1    0.000000   32.899288    6.201250   30.526737
       360       360         1    0.000000   36.609019    6.201250   31.709222
       361       361         1    0.000000   29.262177    8.681750   36.598238
       362       362         1    0.000000   27.688758    6.201250   32.937020
       363       363         1    0.000000   32.971908    8.681750   37.780723
       364       364         1    0.000000   31.398489    6.201250   34.119504
       365       365         1    0.000000   24.051648    8.681750   39.008520
       366       366         1    0.000000   22.478228    6.201250   35.347302
       367       367         1    0.000000   27.761378    8.681750   40.191005
       368       368         1    0.000000   26.187959    6.201250   36.529786
       369       369         1    0.000000   18.841118    8.681750   41.418803
       370       370         1    0.000000   17.267699    6.201250   37.757584
       371       371         1    0.000000   22.550848    8.681750   42.601287
       372       372         1    0.000000   20.977429    6.201250   38.940068
       373       373         1    0.000000   13.630588    8.681750   43.829085