LAMPPS input converted from DLPoly config file

     14070   atoms
      8964   bonds
      6354   angles
      1248   impropers

       5   atom types
       2   bond types
       2   angle types
       1   improper types

    0.000000   47.802000 xlo xhi
    0.000000   39.688000 ylo yhi
    0.000000   90.000000 zlo zhi


  Masses

       1   40.080000    
       2   12.010000    
       3   16.000000    
       4   16.000000    
       5   1.0100000    

   Atoms

         1         1         1    0.000000    4.659898    3.720750   26.396289
         2         2         1    0.000000    4.659898    3.720750   32.137289
         3         3         1    0.000000    0.676398    1.240250   32.028210
         4         4         1    0.000000    7.290602    3.720750   29.266789
         5         5         1    0.000000    3.307102    1.240250   29.157710
         6         6         1    0.000000    4.659898    3.720750   37.878289
         7         7         1    0.000000    0.676398    1.240250   37.769210
         8         8         1    0.000000    7.290602    3.720750   35.007789
         9         9         1    0.000000    3.307102    1.240250   34.898710
        10        10         1    0.000000    4.659898    3.720750   43.619289
        11        11         1    0.000000    0.676398    1.240250   43.510210
        12        12         1    0.000000    7.290602    3.720750   40.748789
        13        13         1    0.000000    3.307102    1.240250   40.639710
        14        14         1    0.000000    4.659898    3.720750   49.360289
        15        15         1    0.000000    0.676398    1.240250   49.251210
        16        16         1    0.000000    7.290602    3.720750   46.489789
        17        17         1    0.000000    3.307102    1.240250   46.380710
        18        18         1    0.000000    4.659898    3.720750   55.101289
        19        19         1    0.000000    0.676398    1.240250   54.992210
        20        20         1    0.000000    7.290602    3.720750   52.230789
        21        21         1    0.000000    3.307102    1.240250   52.121710
        22        22         1    0.000000    4.659898    3.720750   60.842289
        23        23         1    0.000000    0.676398    1.240250   60.733210
        24        24         1    0.000000    7.290602    3.720750   57.971789
        25        25         1    0.000000    3.307102    1.240250   57.862710
        26        26         1    0.000000    3.307102    1.240250   63.603710
        27        27         1    0.000000    4.659898    8.681750   26.396289
        28        28         1    0.000000    4.659898    8.681750   32.137289
        29        29         1    0.000000    0.676398    6.201250   32.028210
        30        30         1    0.000000    7.290602    8.681750   29.266789
        31        31         1    0.000000    3.307102    6.201250   29.157710
        32        32         1    0.000000    4.659898    8.681750   37.878289
        33        33         1    0.000000    0.676398    6.201250   37.769210
        34        34         1    0.000000    7.290602    8.681750   35.007789
        35        35         1    0.000000    3.307102    6.201250   34.898710
        36        36         1    0.000000    4.659898    8.681750   43.619289
        37        37         1    0.000000    0.676398    6.201250   43.510210
        38        38         1    0.000000    7.290602    8.681750   40.748789
        39        39         1    0.000000    3.307102    6.201250   40.639710
        40        40         1    0.000000    4.659898    8.681750   49.360289
        41        41         1    0.000000    0.676398    6.201250   49.251210
        42        42         1    0.000000    7.290602    8.681750   46.489789
        43        43         1    0.000000    3.307102    6.201250   46.380710
        44        44         1    0.000000    4.659898    8.681750   55.101289
        45        45         1    0.000000    0.676398    6.201250   54.992210
        46        46         1    0.000000    7.290602    8.681750   52.230789
        47        47         1    0.000000    3.307102    6.201250   52.121710
        48        48         1    0.000000    4.659898    8.681750   60.842289
        49        49         1    0.000000    0.676398    6.201250   60.733210
        50        50         1    0.000000    7.290602    8.681750   57.971789
        51        51         1    0.000000    3.307102    6.201250   57.862710
        52        52         1    0.000000    3.307102    6.201250   63.603710
        53        53         1    0.000000    4.659898   13.642750   26.396289
        54        54         1    0.000000    4.659898   13.642750   32.137289
        55        55         1    0.000000    0.676398   11.162250   32.028210
        56        56         1    0.000000    7.290602   13.642750   29.266789
        57        57         1    0.000000    3.307102   11.162250   29.157710
        58        58         1    0.000000    4.659898   13.642750   37.878289
        59        59         1    0.000000    0.676398   11.162250   37.769210
        60        60         1    0.000000    7.290602   13.642750   35.007789
        61        61         1    0.000000    3.307102   11.162250   34.898710
        62        62         1    0.000000    4.659898   13.642750   43.619289
        63        63         1    0.000000    0.676398   11.162250   43.510210
        64        64         1    0.000000    7.290602   13.642750   40.748789
        65        65         1    0.000000    3.307102   11.162250   40.639710
        66        66         1    0.000000    4.659898   13.642750   49.360289
        67        67         1    0.000000    0.676398   11.162250   49.251210
        68        68         1    0.000000    7.290602   13.642750   46.489789
        69        69         1    0.000000    3.307102   11.162250   46.380710
        70        70         1    0.000000    4.659898   13.642750   55.101289
        71        71         1    0.000000    0.676398   11.162250   54.992210
        72        72         1    0.000000    7.290602   13.642750   52.230789
        73        73         1    0.000000    3.307102   11.162250   52.121710
        74        74         1    0.000000    4.659898   13.642750   60.842289
        75        75         1    0.000000    0.676398   11.162250   60.733210
        76        76         1    0.000000    7.290602   13.642750   57.971789
        77        77         1    0.000000    3.307102   11.162250   57.862710
        78        78         1    0.000000    3.307102   11.162250   63.603710
        79        79         1    0.000000    4.659898   18.603750   26.396289
        80        80         1    0.000000    4.659898   18.603750   32.137289
        81        81         1    0.000000    0.676398   16.123250   32.028210
        82        82         1    0.000000    7.290602   18.603750   29.266789
        83        83         1    0.000000    3.307102   16.123250   29.157710
        84        84         1    0.000000    4.659898   18.603750   37.878289
        85        85         1    0.000000    0.676398   16.123250   37.769210
        86        86         1    0.000000    7.290602   18.603750   35.007789
        87        87         1    0.000000    3.307102   16.123250   34.898710
        88        88         1    0.000000    4.659898   18.603750   43.619289
        89        89         1    0.000000    0.676398   16.123250   43.510210
        90        90         1    0.000000    7.290602   18.603750   40.748789
        91        91         1    0.000000    3.307102   16.123250   40.639710
        92        92         1    0.000000    4.659898   18.603750   49.360289
        93        93         1    0.000000    0.676398   16.123250   49.251210
        94        94         1    0.000000    7.290602   18.603750   46.489789
        95        95         1    0.000000    3.307102   16.123250   46.380710
        96        96         1    0.000000    4.659898   18.603750   55.101289
        97        97         1    0.000000    0.676398   16.123250   54.992210
        98        98         1    0.000000    7.290602   18.603750   52.230789
        99        99         1    0.000000    3.307102   16.123250   52.121710
       100       100         1    0.000000    4.659898   18.603750   60.842289
       101       101         1    0.000000    0.676398   16.123250   60.733210
       102       102         1    0.000000    7.290602   18.603750   57.971789
       103       103         1    0.000000    3.307102   16.123250   57.862710
       104       104         1    0.000000    3.307102   16.123250   63.603710
       105       105         1    0.000000    4.659898   23.564750   26.396289
       106       106         1    0.000000    4.659898   23.564750   32.137289
       107       107         1    0.000000    0.676398   21.084250   32.028210
       108       108         1    0.000000    7.290602   23.564750   29.266789
       109       109         1    0.000000    3.307102   21.084250   29.157710
       110       110         1    0.000000    4.659898   23.564750   37.878289
       111       111         1    0.000000    0.676398   21.084250   37.769210
       112       112         1    0.000000    7.290602   23.564750   35.007789
       113       113         1    0.000000    3.307102   21.084250   34.898710
       114       114         1    0.000000    4.659898   23.564750   43.619289
       115       115         1    0.000000    0.676398   21.084250   43.510210
       116       116         1    0.000000    7.290602   23.564750   40.748789
       117       117         1    0.000000    3.307102   21.084250   40.639710
       118       118         1    0.000000    4.659898   23.564750   49.360289
       119       119         1    0.000000    0.676398   21.084250   49.251210
       120       120         1    0.000000    7.290602   23.564750   46.489789
       121       121         1    0.000000    3.307102   21.084250   46.380710
       122       122         1    0.000000    4.659898   23.564750   55.101289
       123       123         1    0.000000    0.676398   21.084250   54.992210
       124       124         1    0.000000    7.290602   23.564750   52.230789
       125       125         1    0.000000    3.307102   21.084250   52.121710
       126       126         1    0.000000    4.659898   23.564750   60.842289
       127       127         1    0.000000    0.676398   21.084250   60.733210
       128       128         1    0.000000    7.290602   23.564750   57.971789
       129       129         1    0.000000    3.307102   21.084250   57.862710
       130       130         1    0.000000    3.307102   21.084250   63.603710
       131       131         1    0.000000    4.659898   28.525750   26.396289
       132       132         1    0.000000    4.659898   28.525750   32.137289
       133       133         1    0.000000    0.676398   26.045250   32.028210
       134       134         1    0.000000    7.290602   28.525750   29.266789
       135       135         1    0.000000    3.307102   26.045250   29.157710
       136       136         1    0.000000    4.659898   28.525750   37.878289
       137       137         1    0.000000    0.676398   26.045250   37.769210
       138       138         1    0.000000    7.290602   28.525750   35.007789
       139       139         1    0.000000    3.307102   26.045250   34.898710
       140       140         1    0.000000    4.659898   28.525750   43.619289
       141       141         1    0.000000    0.676398   26.045250   43.510210
       142       142         1    0.000000    7.290602   28.525750   40.748789
       143       143         1    0.000000    3.307102   26.045250   40.639710
       144       144         1    0.000000    4.659898   28.525750   49.360289
       145       145         1    0.000000    0.676398   26.045250   49.251210
       146       146         1    0.000000    7.290602   28.525750   46.489789
       147       147         1    0.000000    3.307102   26.045250   46.380710
       148       148         1    0.000000    4.659898   28.525750   55.101289
       149       149         1    0.000000    0.676398   26.045250   54.992210
       150       150         1    0.000000    7.290602   28.525750   52.230789
       151       151         1    0.000000    3.307102   26.045250   52.121710
       152       152         1    0.000000    4.659898   28.525750   60.842289
       153       153         1    0.000000    0.676398   26.045250   60.733210
       154       154         1    0.000000    7.290602   28.525750   57.971789
       155       155         1    0.000000    3.307102   26.045250   57.862710
       156       156         1    0.000000    3.307102   26.045250   63.603710
       157       157         1    0.000000    4.659898   33.486750   26.396289
       158       158         1    0.000000    4.659898   33.486750   32.137289
       159       159         1    0.000000    0.676398   31.006250   32.028210
       160       160         1    0.000000    7.290602   33.486750   29.266789
       161       161         1    0.000000    3.307102   31.006250   29.157710
       162       162         1    0.000000    4.659898   33.486750   37.878289
       163       163         1    0.000000    0.676398   31.006250   37.769210
       164       164         1    0.000000    7.290602   33.486750   35.007789
       165       165         1    0.000000    3.307102   31.006250   34.898710
       166       166         1    0.000000    4.659898   33.486750   43.619289
       167       167         1    0.000000    0.676398   31.006250   43.510210
       168       168         1    0.000000    7.290602   33.486750   40.748789
       169       169         1    0.000000    3.307102   31.006250   40.639710
       170       170         1    0.000000    4.659898   33.486750   49.360289
       171       171         1    0.000000    0.676398   31.006250   49.251210
       172       172         1    0.000000    7.290602   33.486750   46.489789
       173       173         1    0.000000    3.307102   31.006250   46.380710
       174       174         1    0.000000    4.659898   33.486750   55.101289
       175       175         1    0.000000    0.676398   31.006250   54.992210
       176       176         1    0.000000    7.290602   33.486750   52.230789
       177       177         1    0.000000    3.307102   31.006250   52.121710
       178       178         1    0.000000    4.659898   33.486750   60.842289
       179       179         1    0.000000    0.676398   31.006250   60.733210
       180       180         1    0.000000    7.290602   33.486750   57.971789
       181       181         1    0.000000    3.307102   31.006250   57.862710
       182       182         1    0.000000    3.307102   31.006250   63.603710
       183       183         1    0.000000    4.659898   38.447750   26.396289
       184       184         1    0.000000    4.659898   38.447750   32.137289
       185       185         1    0.000000    0.676398   35.967250   32.028210
       186       186         1    0.000000    7.290602   38.447750   29.266789
       187       187         1    0.000000    3.307102   35.967250   29.157710
       188       188         1    0.000000    4.659898   38.447750   37.878289
       189       189         1    0.000000    0.676398   35.967250   37.769210
       190       190         1    0.000000    7.290602   38.447750   35.007789
       191       191         1    0.000000    3.307102   35.967250   34.898710
       192       192         1    0.000000    4.659898   38.447750   43.619289
       193       193         1    0.000000    0.676398   35.967250   43.510210
       194       194         1    0.000000    7.290602   38.447750   40.748789
       195       195         1    0.000000    3.307102   35.967250   40.639710
       196       196         1    0.000000    4.659898   38.447750   49.360289
       197       197         1    0.000000    0.676398   35.967250   49.251210
       198       198         1    0.000000    7.290602   38.447750   46.489789
       199       199         1    0.000000    3.307102   35.967250   46.380710
       200       200         1    0.000000    4.659898   38.447750   55.101289
       201       201         1    0.000000    0.676398   35.967250   54.992210
       202       202         1    0.000000    7.290602   38.447750   52.230789
       203       203         1    0.000000    3.307102   35.967250   52.121710
       204       204         1    0.000000    4.659898   38.447750   60.842289
       205       205         1    0.000000    0.676398   35.967250   60.733210
       206       206         1    0.000000    7.290602   38.447750   57.971789
       207       207         1    0.000000    3.307102   35.967250   57.862710
       208       208         1    0.000000    3.307102   35.967250   63.603710
       209       209         1    0.000000   12.626898    3.720750   26.396289
       210       210         1    0.000000   12.626898    3.720750   32.137289
       211       211         1    0.000000    8.643398    1.240250   32.028210
       212       212         1    0.000000   15.257602    3.720750   29.266789
       213       213         1    0.000000   11.274102    1.240250   29.157710
       214       214         1    0.000000   12.626898    3.720750   37.878289
       215       215         1    0.000000    8.643398    1.240250   37.769210
       216       216         1    0.000000   15.257602    3.720750   35.007789
       217       217         1    0.000000   11.274102    1.240250   34.898710
       218       218         1    0.000000   12.626898    3.720750   43.619289
       219       219         1    0.000000    8.643398    1.240250   43.510210
       220       220         1    0.000000   15.257602    3.720750   40.748789
       221       221         1    0.000000   11.274102    1.240250   40.639710
       222       222         1    0.000000   12.626898    3.720750   49.360289
       223       223         1    0.000000    8.643398    1.240250   49.251210
       224       224         1    0.000000   15.257602    3.720750   46.489789
       225       225         1    0.000000   11.274102    1.240250   46.380710
       226       226         1    0.000000   12.626898    3.720750   55.101289
       227       227         1    0.000000    8.643398    1.240250   54.992210
       228       228         1    0.000000   15.257602    3.720750   52.230789
       229       229         1    0.000000   11.274102    1.240250   52.121710
       230       230         1    0.000000   12.626898    3.720750   60.842289
       231       231         1    0.000000    8.643398    1.240250   60.733210
       232       232         1    0.000000   15.257602    3.720750   57.971789
       233       233         1    0.000000   11.274102    1.240250   57.862710
       234       234         1    0.000000   11.274102    1.240250   63.603710
       235       235         1    0.000000   12.626898    8.681750   26.396289
       236       236         1    0.000000   12.626898    8.681750   32.137289
       237       237         1    0.000000    8.643398    6.201250   32.028210
       238       238         1    0.000000   15.257602    8.681750   29.266789
       239       239         1    0.000000   11.274102    6.201250   29.157710
       240       240         1    0.000000   12.626898    8.681750   37.878289
       241       241         1    0.000000    8.643398    6.201250   37.769210
       242       242         1    0.000000   15.257602    8.681750   35.007789
       243       243         1    0.000000   11.274102    6.201250   34.898710
       244       244         1    0.000000   12.626898    8.681750   43.619289
       245       245         1    0.000000    8.643398    6.201250   43.510210
       246       246         1    0.000000   15.257602    8.681750   40.748789
       247       247         1    0.000000   11.274102    6.201250   40.639710
       248       248         1    0.000000   12.626898    8.681750   49.360289
       249       249         1    0.000000    8.643398    6.201250   49.251210
       250       250         1    0.000000   15.257602    8.681750   46.489789
       251       251         1    0.000000   11.274102    6.201250   46.380710
       252       252         1    0.000000   12.626898    8.681750   55.101289
       253       253         1    0.000000    8.643398    6.201250   54.992210
       254       254         1    0.000000   15.257602    8.681750   52.230789
       255       255         1    0.000000   11.274102    6.201250   52.121710
       256       256         1    0.000000   12.626898    8.681750   60.842289
       257       257         1    0.000000    8.643398    6.201250   60.733210
       258       258         1    0.000000   15.257602    8.681750   57.971789
       259       259         1    0.000000   11.274102    6.201250   57.862710
       260       260         1    0.000000   11.274102    6.201250   63.603710
       261       261         1    0.000000   12.626898   13.642750   26.396289
       262       262         1    0.000000   12.626898   13.642750   32.137289
       263       263         1    0.000000    8.643398   11.162250   32.028210
       264       264         1    0.000000   15.257602   13.642750   29.266789
       265       265         1    0.000000   11.274102   11.162250   29.157710
       266       266         1    0.000000   12.626898   13.642750   37.878289
       267       267         1    0.000000    8.643398   11.162250   37.769210
       268       268         1    0.000000   15.257602   13.642750   35.007789
       269       269         1    0.000000   11.274102   11.162250   34.898710
       270       270         1    0.000000   12.626898   13.642750   43.619289
       271       271         1    0.000000    8.643398   11.162250   43.510210
       272       272         1    0.000000   15.257602   13.642750   40.748789
       273       273         1    0.000000   11.274102   11.162250   40.639710
       274       274         1    0.000000   12.626898   13.642750   49.360289
       275       275         1    0.000000    8.643398   11.162250   49.251210
       276       276         1    0.000000   15.257602   13.642750   46.489789
       277       277         1    0.000000   11.274102   11.162250   46.380710
       278       278         1    0.000000   12.626898   13.642750   55.101289
       279       279         1    0.000000    8.643398   11.162250   54.992210
       280       280         1    0.000000   15.257602   13.642750   52.230789
       281       281         1    0.000000   11.274102   11.162250   52.121710
       282       282         1    0.000000   12.626898   13.642750   60.842289
       283       283         1    0.000000    8.643398   11.162250   60.733210
       284       284         1    0.000000   15.257602   13.642750   57.971789
       285       285         1    0.000000   11.274102   11.162250   57.862710
       286       286         1    0.000000   11.274102   11.162250   63.603710
       287       287         1    0.000000   12.626898   18.603750   26.396289
       288       288         1    0.000000   12.626898   18.603750   32.137289
       289       289         1    0.000000    8.643398   16.123250   32.028210
       290       290         1    0.000000   15.257602   18.603750   29.266789
       291       291         1    0.000000   11.274102   16.123250   29.157710
       292       292         1    0.000000   12.626898   18.603750   37.878289
       293       293         1    0.000000    8.643398   16.123250   37.769210
       294       294         1    0.000000   15.257602   18.603750   35.007789
       295       295         1    0.000000   11.274102   16.123250   34.898710
       296       296         1    0.000000   12.626898   18.603750   43.619289
       297       297         1    0.000000    8.643398   16.123250   43.510210
       298       298         1    0.000000   15.257602   18.603750   40.748789
       299       299         1    0.000000   11.274102   16.123250   40.639710
       300       300         1    0.000000   12.626898   18.603750   49.360289
       301       301         1    0.000000    8.643398   16.123250   49.251210
       302       302         1    0.000000   15.257602   18.603750   46.489789
       303       303         1    0.000000   11.274102   16.123250   46.380710
       304       304         1    0.000000   12.626898   18.603750   55.101289
       305       305         1    0.000000    8.643398   16.123250   54.992210
       306       306         1    0.000000   15.257602   18.603750   52.230789
       307       307         1    0.000000   11.274102   16.123250   52.121710
       308       308         1    0.000000   12.626898   18.603750   60.842289
       309       309         1    0.000000    8.643398   16.123250   60.733210
       310       310         1    0.000000   15.257602   18.603750   57.971789
       311       311         1    0.000000   11.274102   16.123250   57.862710
       312       312         1    0.000000   11.274102   16.123250   63.603710
       313       313         1    0.000000   12.626898   23.564750   26.396289
       314       314         1    0.000000   12.626898   23.564750   32.137289
       315       315         1    0.000000    8.643398   21.084250   32.028210
       316       316         1    0.000000   15.257602   23.564750   29.266789
       317       317         1    0.000000   11.274102   21.084250   29.157710
       318       318         1    0.000000   12.626898   23.564750   37.878289
       319       319         1    0.000000    8.643398   21.084250   37.769210
       320       320         1    0.000000   15.257602   23.564750   35.007789
       321       321         1    0.000000   11.274102   21.084250   34.898710
       322       322         1    0.000000   12.626898   23.564750   43.619289
       323       323         1    0.000000    8.643398   21.084250   43.510210
       324       324         1    0.000000   15.257602   23.564750   40.748789
       325       325         1    0.000000   11.274102   21.084250   40.639710
       326       326         1    0.000000   12.626898   23.564750   49.360289
       327       327         1    0.000000    8.643398   21.084250   49.251210
       328       328         1    0.000000   15.257602   23.564750   46.489789
       329       329         1    0.000000   11.274102   21.084250   46.380710
       330       330         1    0.000000   12.626898   23.564750   55.101289
       331       331         1    0.000000    8.643398   21.084250   54.992210
       332       332         1    0.000000   15.257602   23.564750   52.230789
       333       333         1    0.000000   11.274102   21.084250   52.121710
       334       334         1    0.000000   12.626898   23.564750   60.842289
       335       335         1    0.000000    8.643398   21.084250   60.733210
       336       336         1    0.000000   15.257602   23.564750   57.971789
       337       337         1    0.000000   11.274102   21.084250   57.862710
       338       338         1    0.000000   11.274102   21.084250   63.603710
       339       339         1    0.000000   12.626898   28.525750   26.396289
       340       340         1    0.000000   12.626898   28.525750   32.137289
       341       341         1    0.000000    8.643398   26.045250   32.028210
       342       342         1    0.000000   15.257602   28.525750   29.266789
       343       343         1    0.000000   11.274102   26.045250   29.157710
       344       344         1    0.000000   12.626898   28.525750   37.878289
       345       345         1    0.000000    8.643398   26.045250   37.769210
       346       346         1    0.000000   15.257602   28.525750   35.007789
       347       347         1    0.000000   11.274102   26.045250   34.898710
       348       348         1    0.000000   12.626898   28.525750   43.619289
       349       349         1    0.000000    8.643398   26.045250   43.510210
       350       350         1    0.000000   15.257602   28.525750   40.748789
       351       351         1    0.000000   11.274102   26.045250   40.639710
       352       352         1    0.000000   12.626898   28.525750   49.360289
       353       353         1    0.000000    8.643398   26.045250   49.251210
       354       354         1    0.000000   15.257602   28.525750   46.489789
       355       355         1    0.000000   11.274102   26.045250   46.380710
       356       356         1    0.000000   12.626898   28.525750   55.101289
       357       357         1    0.000000    8.643398   26.045250   54.992210
       358       358         1    0.000000   15.257602   28.525750   52.230789
       359       359         1    0.000000   11.274102   26.045250   52.121710
       360       360         1    0.000000   12.626898   28.525750   60.842289
       361       361         1    0.000000    8.643398   26.045250   60.733210
       362       362         1    0.000000   15.257602   28.525750   57.971789
       363       363         1    0.000000   11.274102   26.045250   57.862710
       364       364         1    0.000000   11.274102   26.045250   63.603710
       365       365         1    0.000000   12.626898   33.486750   26.396289
       366       366         1    0.000000   12.626898   33.486750   32.137289
       367       367         1    0.000000    8.643398   31.006250   32.028210
       368       368         1    0.000000   15.257602   33.486750   29.266789
       369       369         1    0.000000   11.274102   31.006250   29.157710
       370       370         1    0.000000   12.626898   33.486750   37.878289
       371       371         1    0.000000    8.643398   31.006250   37.769210
       372       372         1    0.000000   15.257602   33.486750   35.007789
       373       373         1    0.000000   11.274102   31.006250   34.898710