LAMPPS input converted from DLPoly config file

      9909   atoms
      6318   bonds
      4455   angles
       864   impropers

       5   atom types
       2   bond types
       2   angle types
       1   improper types

    0.000000   34.446000 xlo xhi
    0.000000   39.688000 ylo yhi
    0.000000   90.000000 zlo zhi


  Masses

       1   40.080000    
       2   12.010000    
       3   16.000000    
       4   16.000000    
       5   1.0100000    

   Atoms

         1         1         1    0.000000    1.489789    3.720750   28.389602
         2         2         1    0.000000    7.230789    3.720750   28.389602
         3         3         1    0.000000   12.971789    3.720750   28.389602
         4         4         1    0.000000   18.712789    3.720750   28.389602
         5         5         1    0.000000   24.453789    3.720750   28.389602
         6         6         1    0.000000   30.194789    3.720750   28.389602
         7         7         1    0.000000    1.489789    8.681750   28.389602
         8         8         1    0.000000    7.230789    8.681750   28.389602
         9         9         1    0.000000   12.971789    8.681750   28.389602
        10        10         1    0.000000   18.712789    8.681750   28.389602
        11        11         1    0.000000   24.453789    8.681750   28.389602
        12        12         1    0.000000   30.194789    8.681750   28.389602
        13        13         1    0.000000    1.489789   13.642750   28.389602
        14        14         1    0.000000    7.230789   13.642750   28.389602
        15        15         1    0.000000   12.971789   13.642750   28.389602
        16        16         1    0.000000   18.712789   13.642750   28.389602
        17        17         1    0.000000   24.453789   13.642750   28.389602
        18        18         1    0.000000   30.194789   13.642750   28.389602
        19        19         1    0.000000    1.489789   18.603750   28.389602
        20        20         1    0.000000    7.230789   18.603750   28.389602
        21        21         1    0.000000   12.971789   18.603750   28.389602
        22        22         1    0.000000   18.712789   18.603750   28.389602
        23        23         1    0.000000   24.453789   18.603750   28.389602
        24        24         1    0.000000   30.194789   18.603750   28.389602
        25        25         1    0.000000    1.489789   23.564750   28.389602
        26        26         1    0.000000    7.230789   23.564750   28.389602
        27        27         1    0.000000   12.971789   23.564750   28.389602
        28        28         1    0.000000   18.712789   23.564750   28.389602
        29        29         1    0.000000   24.453789   23.564750   28.389602
        30        30         1    0.000000   30.194789   23.564750   28.389602
        31        31         1    0.000000    1.489789   28.525750   28.389602
        32        32         1    0.000000    7.230789   28.525750   28.389602
        33        33         1    0.000000   12.971789   28.525750   28.389602
        34        34         1    0.000000   18.712789   28.525750   28.389602
        35        35         1    0.000000   24.453789   28.525750   28.389602
        36        36         1    0.000000   30.194789   28.525750   28.389602
        37        37         1    0.000000    1.489789   33.486750   28.389602
        38        38         1    0.000000    7.230789   33.486750   28.389602
        39        39         1    0.000000   12.971789   33.486750   28.389602
        40        40         1    0.000000   18.712789   33.486750   28.389602
        41        41         1    0.000000   24.453789   33.486750   28.389602
        42        42         1    0.000000   30.194789   33.486750   28.389602
        43        43         1    0.000000    1.489789   38.447750   28.389602
        44        44         1    0.000000    7.230789   38.447750   28.389602
        45        45         1    0.000000   12.971789   38.447750   28.389602
        46        46         1    0.000000   18.712789   38.447750   28.389602
        47        47         1    0.000000   24.453789   38.447750   28.389602
        48        48         1    0.000000   30.194789   38.447750   28.389602
        49        49         1    0.000000    4.360289    3.720750   33.725898
        50        50         1    0.000000    4.251210    1.240250   29.742398
        51        51         1    0.000000    1.489789    3.720750   36.356602
        52        52         1    0.000000    1.380710    1.240250   32.373102
        53        53         1    0.000000   10.101289    3.720750   33.725898
        54        54         1    0.000000    9.992210    1.240250   29.742398
        55        55         1    0.000000    7.230789    3.720750   36.356602
        56        56         1    0.000000    7.121710    1.240250   32.373102
        57        57         1    0.000000   15.842289    3.720750   33.725898
        58        58         1    0.000000   15.733210    1.240250   29.742398
        59        59         1    0.000000   12.971789    3.720750   36.356602
        60        60         1    0.000000   12.862710    1.240250   32.373102
        61        61         1    0.000000   21.583289    3.720750   33.725898
        62        62         1    0.000000   21.474210    1.240250   29.742398
        63        63         1    0.000000   18.712789    3.720750   36.356602
        64        64         1    0.000000   18.603710    1.240250   32.373102
        65        65         1    0.000000   27.324289    3.720750   33.725898
        66        66         1    0.000000   27.215210    1.240250   29.742398
        67        67         1    0.000000   24.453789    3.720750   36.356602
        68        68         1    0.000000   24.344710    1.240250   32.373102
        69        69         1    0.000000   33.065289    3.720750   33.725898
        70        70         1    0.000000   32.956210    1.240250   29.742398
        71        71         1    0.000000   30.194789    3.720750   36.356602
        72        72         1    0.000000   30.085710    1.240250   32.373102
        73        73         1    0.000000    4.360289    8.681750   33.725898
        74        74         1    0.000000    4.251210    6.201250   29.742398
        75        75         1    0.000000    1.489789    8.681750   36.356602
        76        76         1    0.000000    1.380710    6.201250   32.373102
        77        77         1    0.000000   10.101289    8.681750   33.725898
        78        78         1    0.000000    9.992210    6.201250   29.742398
        79        79         1    0.000000    7.230789    8.681750   36.356602
        80        80         1    0.000000    7.121710    6.201250   32.373102
        81        81         1    0.000000   15.842289    8.681750   33.725898
        82        82         1    0.000000   15.733210    6.201250   29.742398
        83        83         1    0.000000   12.971789    8.681750   36.356602
        84        84         1    0.000000   12.862710    6.201250   32.373102
        85        85         1    0.000000   21.583289    8.681750   33.725898
        86        86         1    0.000000   21.474210    6.201250   29.742398
        87        87         1    0.000000   18.712789    8.681750   36.356602
        88        88         1    0.000000   18.603710    6.201250   32.373102
        89        89         1    0.000000   27.324289    8.681750   33.725898
        90        90         1    0.000000   27.215210    6.201250   29.742398
        91        91         1    0.000000   24.453789    8.681750   36.356602
        92        92         1    0.000000   24.344710    6.201250   32.373102
        93        93         1    0.000000   33.065289    8.681750   33.725898
        94        94         1    0.000000   32.956210    6.201250   29.742398
        95        95         1    0.000000   30.194789    8.681750   36.356602
        96        96         1    0.000000   30.085710    6.201250   32.373102
        97        97         1    0.000000    4.360289   13.642750   33.725898
        98        98         1    0.000000    4.251210   11.162250   29.742398
        99        99         1    0.000000    1.489789   13.642750   36.356602
       100       100         1    0.000000    1.380710   11.162250   32.373102
       101       101         1    0.000000   10.101289   13.642750   33.725898
       102       102         1    0.000000    9.992210   11.162250   29.742398
       103       103         1    0.000000    7.230789   13.642750   36.356602
       104       104         1    0.000000    7.121710   11.162250   32.373102
       105       105         1    0.000000   15.842289   13.642750   33.725898
       106       106         1    0.000000   15.733210   11.162250   29.742398
       107       107         1    0.000000   12.971789   13.642750   36.356602
       108       108         1    0.000000   12.862710   11.162250   32.373102
       109       109         1    0.000000   21.583289   13.642750   33.725898
       110       110         1    0.000000   21.474210   11.162250   29.742398
       111       111         1    0.000000   18.712789   13.642750   36.356602
       112       112         1    0.000000   18.603710   11.162250   32.373102
       113       113         1    0.000000   27.324289   13.642750   33.725898
       114       114         1    0.000000   27.215210   11.162250   29.742398
       115       115         1    0.000000   24.453789   13.642750   36.356602
       116       116         1    0.000000   24.344710   11.162250   32.373102
       117       117         1    0.000000   33.065289   13.642750   33.725898
       118       118         1    0.000000   32.956210   11.162250   29.742398
       119       119         1    0.000000   30.194789   13.642750   36.356602
       120       120         1    0.000000   30.085710   11.162250   32.373102
       121       121         1    0.000000    4.360289   18.603750   33.725898
       122       122         1    0.000000    4.251210   16.123250   29.742398
       123       123         1    0.000000    1.489789   18.603750   36.356602
       124       124         1    0.000000    1.380710   16.123250   32.373102
       125       125         1    0.000000   10.101289   18.603750   33.725898
       126       126         1    0.000000    9.992210   16.123250   29.742398
       127       127         1    0.000000    7.230789   18.603750   36.356602
       128       128         1    0.000000    7.121710   16.123250   32.373102
       129       129         1    0.000000   15.842289   18.603750   33.725898
       130       130         1    0.000000   15.733210   16.123250   29.742398
       131       131         1    0.000000   12.971789   18.603750   36.356602
       132       132         1    0.000000   12.862710   16.123250   32.373102
       133       133         1    0.000000   21.583289   18.603750   33.725898
       134       134         1    0.000000   21.474210   16.123250   29.742398
       135       135         1    0.000000   18.712789   18.603750   36.356602
       136       136         1    0.000000   18.603710   16.123250   32.373102
       137       137         1    0.000000   27.324289   18.603750   33.725898
       138       138         1    0.000000   27.215210   16.123250   29.742398
       139       139         1    0.000000   24.453789   18.603750   36.356602
       140       140         1    0.000000   24.344710   16.123250   32.373102
       141       141         1    0.000000   33.065289   18.603750   33.725898
       142       142         1    0.000000   32.956210   16.123250   29.742398
       143       143         1    0.000000   30.194789   18.603750   36.356602
       144       144         1    0.000000   30.085710   16.123250   32.373102
       145       145         1    0.000000    4.360289   23.564750   33.725898
       146       146         1    0.000000    4.251210   21.084250   29.742398
       147       147         1    0.000000    1.489789   23.564750   36.356602
       148       148         1    0.000000    1.380710   21.084250   32.373102
       149       149         1    0.000000   10.101289   23.564750   33.725898
       150       150         1    0.000000    9.992210   21.084250   29.742398
       151       151         1    0.000000    7.230789   23.564750   36.356602
       152       152         1    0.000000    7.121710   21.084250   32.373102
       153       153         1    0.000000   15.842289   23.564750   33.725898
       154       154         1    0.000000   15.733210   21.084250   29.742398
       155       155         1    0.000000   12.971789   23.564750   36.356602
       156       156         1    0.000000   12.862710   21.084250   32.373102
       157       157         1    0.000000   21.583289   23.564750   33.725898
       158       158         1    0.000000   21.474210   21.084250   29.742398
       159       159         1    0.000000   18.712789   23.564750   36.356602
       160       160         1    0.000000   18.603710   21.084250   32.373102
       161       161         1    0.000000   27.324289   23.564750   33.725898
       162       162         1    0.000000   27.215210   21.084250   29.742398
       163       163         1    0.000000   24.453789   23.564750   36.356602
       164       164         1    0.000000   24.344710   21.084250   32.373102
       165       165         1    0.000000   33.065289   23.564750   33.725898
       166       166         1    0.000000   32.956210   21.084250   29.742398
       167       167         1    0.000000   30.194789   23.564750   36.356602
       168       168         1    0.000000   30.085710   21.084250   32.373102
       169       169         1    0.000000    4.360289   28.525750   33.725898
       170       170         1    0.000000    4.251210   26.045250   29.742398
       171       171         1    0.000000    1.489789   28.525750   36.356602
       172       172         1    0.000000    1.380710   26.045250   32.373102
       173       173         1    0.000000   10.101289   28.525750   33.725898
       174       174         1    0.000000    9.992210   26.045250   29.742398
       175       175         1    0.000000    7.230789   28.525750   36.356602
       176       176         1    0.000000    7.121710   26.045250   32.373102
       177       177         1    0.000000   15.842289   28.525750   33.725898
       178       178         1    0.000000   15.733210   26.045250   29.742398
       179       179         1    0.000000   12.971789   28.525750   36.356602
       180       180         1    0.000000   12.862710   26.045250   32.373102
       181       181         1    0.000000   21.583289   28.525750   33.725898
       182       182         1    0.000000   21.474210   26.045250   29.742398
       183       183         1    0.000000   18.712789   28.525750   36.356602
       184       184         1    0.000000   18.603710   26.045250   32.373102
       185       185         1    0.000000   27.324289   28.525750   33.725898
       186       186         1    0.000000   27.215210   26.045250   29.742398
       187       187         1    0.000000   24.453789   28.525750   36.356602
       188       188         1    0.000000   24.344710   26.045250   32.373102
       189       189         1    0.000000   33.065289   28.525750   33.725898
       190       190         1    0.000000   32.956210   26.045250   29.742398
       191       191         1    0.000000   30.194789   28.525750   36.356602
       192       192         1    0.000000   30.085710   26.045250   32.373102
       193       193         1    0.000000    4.360289   33.486750   33.725898
       194       194         1    0.000000    4.251210   31.006250   29.742398
       195       195         1    0.000000    1.489789   33.486750   36.356602
       196       196         1    0.000000    1.380710   31.006250   32.373102
       197       197         1    0.000000   10.101289   33.486750   33.725898
       198       198         1    0.000000    9.992210   31.006250   29.742398
       199       199         1    0.000000    7.230789   33.486750   36.356602
       200       200         1    0.000000    7.121710   31.006250   32.373102
       201       201         1    0.000000   15.842289   33.486750   33.725898
       202       202         1    0.000000   15.733210   31.006250   29.742398
       203       203         1    0.000000   12.971789   33.486750   36.356602
       204       204         1    0.000000   12.862710   31.006250   32.373102
       205       205         1    0.000000   21.583289   33.486750   33.725898
       206       206         1    0.000000   21.474210   31.006250   29.742398
       207       207         1    0.000000   18.712789   33.486750   36.356602
       208       208         1    0.000000   18.603710   31.006250   32.373102
       209       209         1    0.000000   27.324289   33.486750   33.725898
       210       210         1    0.000000   27.215210   31.006250   29.742398
       211       211         1    0.000000   24.453789   33.486750   36.356602
       212       212         1    0.000000   24.344710   31.006250   32.373102
       213       213         1    0.000000   33.065289   33.486750   33.725898
       214       214         1    0.000000   32.956210   31.006250   29.742398
       215       215         1    0.000000   30.194789   33.486750   36.356602
       216       216         1    0.000000   30.085710   31.006250   32.373102
       217       217         1    0.000000    4.360289   38.447750   33.725898
       218       218         1    0.000000    4.251210   35.967250   29.742398
       219       219         1    0.000000    1.489789   38.447750   36.356602
       220       220         1    0.000000    1.380710   35.967250   32.373102
       221       221         1    0.000000   10.101289   38.447750   33.725898
       222       222         1    0.000000    9.992210   35.967250   29.742398
       223       223         1    0.000000    7.230789   38.447750   36.356602
       224       224         1    0.000000    7.121710   35.967250   32.373102
       225       225         1    0.000000   15.842289   38.447750   33.725898
       226       226         1    0.000000   15.733210   35.967250   29.742398
       227       227         1    0.000000   12.971789   38.447750   36.356602
       228       228         1    0.000000   12.862710   35.967250   32.373102
       229       229         1    0.000000   21.583289   38.447750   33.725898
       230       230         1    0.000000   21.474210   35.967250   29.742398
       231       231         1    0.000000   18.712789   38.447750   36.356602
       232       232         1    0.000000   18.603710   35.967250   32.373102
       233       233         1    0.000000   27.324289   38.447750   33.725898
       234       234         1    0.000000   27.215210   35.967250   29.742398
       235       235         1    0.000000   24.453789   38.447750   36.356602
       236       236         1    0.000000   24.344710   35.967250   32.373102
       237       237         1    0.000000   33.065289   38.447750   33.725898
       238       238         1    0.000000   32.956210   35.967250   29.742398
       239       239         1    0.000000   30.194789   38.447750   36.356602
       240       240         1    0.000000   30.085710   35.967250   32.373102
       241       241         1    0.000000    4.360289    3.720750   41.692898
       242       242         1    0.000000    4.251210    1.240250   37.709398
       243       243         1    0.000000    1.489789    3.720750   44.323602
       244       244         1    0.000000    1.380710    1.240250   40.340102
       245       245         1    0.000000   10.101289    3.720750   41.692898
       246       246         1    0.000000    9.992210    1.240250   37.709398
       247       247         1    0.000000    7.230789    3.720750   44.323602
       248       248         1    0.000000    7.121710    1.240250   40.340102
       249       249         1    0.000000   15.842289    3.720750   41.692898
       250       250         1    0.000000   15.733210    1.240250   37.709398
       251       251         1    0.000000   12.971789    3.720750   44.323602
       252       252         1    0.000000   12.862710    1.240250   40.340102
       253       253         1    0.000000   21.583289    3.720750   41.692898
       254       254         1    0.000000   21.474210    1.240250   37.709398
       255       255         1    0.000000   18.712789    3.720750   44.323602
       256       256         1    0.000000   18.603710    1.240250   40.340102
       257       257         1    0.000000   27.324289    3.720750   41.692898
       258       258         1    0.000000   27.215210    1.240250   37.709398
       259       259         1    0.000000   24.453789    3.720750   44.323602
       260       260         1    0.000000   24.344710    1.240250   40.340102
       261       261         1    0.000000   33.065289    3.720750   41.692898
       262       262         1    0.000000   32.956210    1.240250   37.709398
       263       263         1    0.000000   30.194789    3.720750   44.323602
       264       264         1    0.000000   30.085710    1.240250   40.340102
       265       265         1    0.000000    4.360289    8.681750   41.692898
       266       266         1    0.000000    4.251210    6.201250   37.709398
       267       267         1    0.000000    1.489789    8.681750   44.323602
       268       268         1    0.000000    1.380710    6.201250   40.340102
       269       269         1    0.000000   10.101289    8.681750   41.692898
       270       270         1    0.000000    9.992210    6.201250   37.709398
       271       271         1    0.000000    7.230789    8.681750   44.323602
       272       272         1    0.000000    7.121710    6.201250   40.340102
       273       273         1    0.000000   15.842289    8.681750   41.692898
       274       274         1    0.000000   15.733210    6.201250   37.709398
       275       275         1    0.000000   12.971789    8.681750   44.323602
       276       276         1    0.000000   12.862710    6.201250   40.340102
       277       277         1    0.000000   21.583289    8.681750   41.692898
       278       278         1    0.000000   21.474210    6.201250   37.709398
       279       279         1    0.000000   18.712789    8.681750   44.323602
       280       280         1    0.000000   18.603710    6.201250   40.340102
       281       281         1    0.000000   27.324289    8.681750   41.692898
       282       282         1    0.000000   27.215210    6.201250   37.709398
       283       283         1    0.000000   24.453789    8.681750   44.323602
       284       284         1    0.000000   24.344710    6.201250   40.340102
       285       285         1    0.000000   33.065289    8.681750   41.692898
       286       286         1    0.000000   32.956210    6.201250   37.709398
       287       287         1    0.000000   30.194789    8.681750   44.323602
       288       288         1    0.000000   30.085710    6.201250   40.340102
       289       289         1    0.000000    4.360289   13.642750   41.692898
       290       290         1    0.000000    4.251210   11.162250   37.709398
       291       291         1    0.000000    1.489789   13.642750   44.323602
       292       292         1    0.000000    1.380710   11.162250   40.340102
       293       293         1    0.000000   10.101289   13.642750   41.692898
       294       294         1    0.000000    9.992210   11.162250   37.709398
       295       295         1    0.000000    7.230789   13.642750   44.323602
       296       296         1    0.000000    7.121710   11.162250   40.340102
       297       297         1    0.000000   15.842289   13.642750   41.692898
       298       298         1    0.000000   15.733210   11.162250   37.709398
       299       299         1    0.000000   12.971789   13.642750   44.323602
       300       300         1    0.000000   12.862710   11.162250   40.340102
       301       301         1    0.000000   21.583289   13.642750   41.692898
       302       302         1    0.000000   21.474210   11.162250   37.709398
       303       303         1    0.000000   18.712789   13.642750   44.323602
       304       304         1    0.000000   18.603710   11.162250   40.340102
       305       305         1    0.000000   27.324289   13.642750   41.692898
       306       306         1    0.000000   27.215210   11.162250   37.709398
       307       307         1    0.000000   24.453789   13.642750   44.323602
       308       308         1    0.000000   24.344710   11.162250   40.340102
       309       309         1    0.000000   33.065289   13.642750   41.692898
       310       310         1    0.000000   32.956210   11.162250   37.709398
       311       311         1    0.000000   30.194789   13.642750   44.323602
       312       312         1    0.000000   30.085710   11.162250   40.340102
       313       313         1    0.000000    4.360289   18.603750   41.692898
       314       314         1    0.000000    4.251210   16.123250   37.709398
       315       315         1    0.000000    1.489789   18.603750   44.323602
       316       316         1    0.000000    1.380710   16.123250   40.340102
       317       317         1    0.000000   10.101289   18.603750   41.692898
       318       318         1    0.000000    9.992210   16.123250   37.709398
       319       319         1    0.000000    7.230789   18.603750   44.323602
       320       320         1    0.000000    7.121710   16.123250   40.340102
       321       321         1    0.000000   15.842289   18.603750   41.692898
       322       322         1    0.000000   15.733210   16.123250   37.709398
       323       323         1    0.000000   12.971789   18.603750   44.323602
       324       324         1    0.000000   12.862710   16.123250   40.340102
       325       325         1    0.000000   21.583289   18.603750   41.692898
       326       326         1    0.000000   21.474210   16.123250   37.709398
       327       327         1    0.000000   18.712789   18.603750   44.323602
       328       328         1    0.000000   18.603710   16.123250   40.340102
       329       329         1    0.000000   27.324289   18.603750   41.692898
       330       330         1    0.000000   27.215210   16.123250   37.709398
       331       331         1    0.000000   24.453789   18.603750   44.323602
       332       332         1    0.000000   24.344710   16.123250   40.340102
       333       333         1    0.000000   33.065289   18.603750   41.692898
       334       334         1    0.000000   32.956210   16.123250   37.709398
       335       335         1    0.000000   30.194789   18.603750   44.323602
       336       336         1    0.000000   30.085710   16.123250   40.340102
       337       337         1    0.000000    4.360289   23.564750   41.692898
       338       338         1    0.000000    4.251210   21.084250   37.709398
       339       339         1    0.000000    1.489789   23.564750   44.323602
       340       340         1    0.000000    1.380710   21.084250   40.340102
       341       341         1    0.000000   10.101289   23.564750   41.692898
       342       342         1    0.000000    9.992210   21.084250   37.709398
       343       343         1    0.000000    7.230789   23.564750   44.323602
       344       344         1    0.000000    7.121710   21.084250   40.340102
       345       345         1    0.000000   15.842289   23.564750   41.692898
       346       346         1    0.000000   15.733210   21.084250   37.709398
       347       347         1    0.000000   12.971789   23.564750   44.323602
       348       348         1    0.000000   12.862710   21.084250   40.340102
       349       349         1    0.000000   21.583289   23.564750   41.692898
       350       350         1    0.000000   21.474210   21.084250   37.709398
       351       351         1    0.000000   18.712789   23.564750   44.323602
       352       352         1    0.000000   18.603710   21.084250   40.340102
       353       353         1    0.000000   27.324289   23.564750   41.692898
       354       354         1    0.000000   27.215210   21.084250   37.709398
       355       355         1    0.000000   24.453789   23.564750   44.323602
       356       356         1    0.000000   24.344710   21.084250   40.340102
       357       357         1    0.000000   33.065289   23.564750   41.692898
       358       358         1    0.000000   32.956210   21.084250   37.709398
       359       359         1    0.000000   30.194789   23.564750   44.323602
       360       360         1    0.000000   30.085710   21.084250   40.340102
       361       361         1    0.000000    4.360289   28.525750   41.692898
       362       362         1    0.000000    4.251210   26.045250   37.709398
       363       363         1    0.000000    1.489789   28.525750   44.323602
       364       364         1    0.000000    1.380710   26.045250   40.340102
       365       365         1    0.000000   10.101289   28.525750   41.692898
       366       366         1    0.000000    9.992210   26.045250   37.709398
       367       367         1    0.000000    7.230789   28.525750   44.323602
       368       368         1    0.000000    7.121710   26.045250   40.340102
       369       369         1    0.000000   15.842289   28.525750   41.692898
       370       370         1    0.000000   15.733210   26.045250   37.709398
       371       371         1    0.000000   12.971789   28.525750   44.323602
       372       372         1    0.000000   12.862710   26.045250   40.340102
       373       373         1    0.000000   21.583289   28.525750   41.692898