LAMPPS input converted from DLPoly config file

      8268   atoms
      5240   bonds
      3844   angles
       816   impropers

       5   atom types
       2   bond types
       2   angle types
       1   improper types

    0.000000   33.762510 xlo xhi
    0.000000   34.446000 ylo yhi
    0.000000   90.000000 zlo zhi


  Masses

       1   40.080000    
       2   12.010000    
       3   16.000000    
       4   16.000000    
       5   1.0100000    

   Atoms

         1         1         1    0.000000   13.267741    4.360289   25.109851
         2         2         1    0.000000   14.509285    1.489789   27.429155
         3         3         1    0.000000   13.267741   10.101289   25.109851
         4         4         1    0.000000   14.509285    7.230789   27.429155
         5         5         1    0.000000   13.267741   15.842289   25.109851
         6         6         1    0.000000   14.509285   12.971789   27.429155
         7         7         1    0.000000   13.267741   21.583289   25.109851
         8         8         1    0.000000   14.509285   18.712789   27.429155
         9         9         1    0.000000   13.267741   27.324289   25.109851
        10        10         1    0.000000   14.509285   24.453789   27.429155
        11        11         1    0.000000   13.267741   33.065289   25.109851
        12        12         1    0.000000   14.509285   30.194789   27.429155
        13        13         1    0.000000    8.893981    4.360289   27.451163
        14        14         1    0.000000   10.135524    1.489789   29.770467
        15        15         1    0.000000    8.893981   10.101289   27.451163
        16        16         1    0.000000   10.135524    7.230789   29.770467
        17        17         1    0.000000    8.893981   15.842289   27.451163
        18        18         1    0.000000   10.135524   12.971789   29.770467
        19        19         1    0.000000    8.893981   21.583289   27.451163
        20        20         1    0.000000   10.135524   18.712789   29.770467
        21        21         1    0.000000    8.893981   27.324289   27.451163
        22        22         1    0.000000   10.135524   24.453789   29.770467
        23        23         1    0.000000    8.893981   33.065289   27.451163
        24        24         1    0.000000   10.135524   30.194789   29.770467
        25        25         1    0.000000    4.520221    4.360289   29.792476
        26        26         1    0.000000    4.827114    4.251210   25.109851
        27        27         1    0.000000    5.761764    1.489789   32.111779
        28        28         1    0.000000    6.068657    1.380710   27.429155
        29        29         1    0.000000    4.520221   10.101289   29.792476
        30        30         1    0.000000    4.827114    9.992210   25.109851
        31        31         1    0.000000    5.761764    7.230789   32.111779
        32        32         1    0.000000    6.068657    7.121710   27.429155
        33        33         1    0.000000    4.520221   15.842289   29.792476
        34        34         1    0.000000    4.827114   15.733210   25.109851
        35        35         1    0.000000    5.761764   12.971789   32.111779
        36        36         1    0.000000    6.068657   12.862710   27.429155
        37        37         1    0.000000    4.520221   21.583289   29.792476
        38        38         1    0.000000    4.827114   21.474210   25.109851
        39        39         1    0.000000    5.761764   18.712789   32.111779
        40        40         1    0.000000    6.068657   18.603710   27.429155
        41        41         1    0.000000    4.520221   27.324289   29.792476
        42        42         1    0.000000    4.827114   27.215210   25.109851
        43        43         1    0.000000    5.761764   24.453789   32.111779
        44        44         1    0.000000    6.068657   24.344710   27.429155
        45        45         1    0.000000    4.520221   33.065289   29.792476
        46        46         1    0.000000    4.827114   32.956210   25.109851
        47        47         1    0.000000    5.761764   30.194789   32.111779
        48        48         1    0.000000    6.068657   30.085710   27.429155
        49        49         1    0.000000    0.146460    4.360289   32.133788
        50        50         1    0.000000    0.453353    4.251210   27.451163
        51        51         1    0.000000    1.388004    1.489789   34.453091
        52        52         1    0.000000    1.694897    1.380710   29.770467
        53        53         1    0.000000    0.146460   10.101289   32.133788
        54        54         1    0.000000    0.453353    9.992210   27.451163
        55        55         1    0.000000    1.388004    7.230789   34.453091
        56        56         1    0.000000    1.694897    7.121710   29.770467
        57        57         1    0.000000    0.146460   15.842289   32.133788
        58        58         1    0.000000    0.453353   15.733210   27.451163
        59        59         1    0.000000    1.388004   12.971789   34.453091
        60        60         1    0.000000    1.694897   12.862710   29.770467
        61        61         1    0.000000    0.146460   21.583289   32.133788
        62        62         1    0.000000    0.453353   21.474210   27.451163
        63        63         1    0.000000    1.388004   18.712789   34.453091
        64        64         1    0.000000    1.694897   18.603710   29.770467
        65        65         1    0.000000    0.146460   27.324289   32.133788
        66        66         1    0.000000    0.453353   27.215210   27.451163
        67        67         1    0.000000    1.388004   24.453789   34.453091
        68        68         1    0.000000    1.694897   24.344710   29.770467
        69        69         1    0.000000    0.146460   33.065289   32.133788
        70        70         1    0.000000    0.453353   32.956210   27.451163
        71        71         1    0.000000    1.388004   30.194789   34.453091
        72        72         1    0.000000    1.694897   30.085710   29.770467
        73        73         1    0.000000   30.148996    4.360289   25.109851
        74        74         1    0.000000   31.390540    1.489789   27.429155
        75        75         1    0.000000   30.148996   10.101289   25.109851
        76        76         1    0.000000   31.390540    7.230789   27.429155
        77        77         1    0.000000   30.148996   15.842289   25.109851
        78        78         1    0.000000   31.390540   12.971789   27.429155
        79        79         1    0.000000   30.148996   21.583289   25.109851
        80        80         1    0.000000   31.390540   18.712789   27.429155
        81        81         1    0.000000   30.148996   27.324289   25.109851
        82        82         1    0.000000   31.390540   24.453789   27.429155
        83        83         1    0.000000   30.148996   33.065289   25.109851
        84        84         1    0.000000   31.390540   30.194789   27.429155
        85        85         1    0.000000   25.775236    4.360289   27.451163
        86        86         1    0.000000   27.016780    1.489789   29.770467
        87        87         1    0.000000   25.775236   10.101289   27.451163
        88        88         1    0.000000   27.016780    7.230789   29.770467
        89        89         1    0.000000   25.775236   15.842289   27.451163
        90        90         1    0.000000   27.016780   12.971789   29.770467
        91        91         1    0.000000   25.775236   21.583289   27.451163
        92        92         1    0.000000   27.016780   18.712789   29.770467
        93        93         1    0.000000   25.775236   27.324289   27.451163
        94        94         1    0.000000   27.016780   24.453789   29.770467
        95        95         1    0.000000   25.775236   33.065289   27.451163
        96        96         1    0.000000   27.016780   30.194789   29.770467
        97        97         1    0.000000   21.401476    4.360289   29.792476
        98        98         1    0.000000   21.708369    4.251210   25.109851
        99        99         1    0.000000   22.643019    1.489789   32.111779
       100       100         1    0.000000   22.949912    1.380710   27.429155
       101       101         1    0.000000   21.401476   10.101289   29.792476
       102       102         1    0.000000   21.708369    9.992210   25.109851
       103       103         1    0.000000   22.643019    7.230789   32.111779
       104       104         1    0.000000   22.949912    7.121710   27.429155
       105       105         1    0.000000   21.401476   15.842289   29.792476
       106       106         1    0.000000   21.708369   15.733210   25.109851
       107       107         1    0.000000   22.643019   12.971789   32.111779
       108       108         1    0.000000   22.949912   12.862710   27.429155
       109       109         1    0.000000   21.401476   21.583289   29.792476
       110       110         1    0.000000   21.708369   21.474210   25.109851
       111       111         1    0.000000   22.643019   18.712789   32.111779
       112       112         1    0.000000   22.949912   18.603710   27.429155
       113       113         1    0.000000   21.401476   27.324289   29.792476
       114       114         1    0.000000   21.708369   27.215210   25.109851
       115       115         1    0.000000   22.643019   24.453789   32.111779
       116       116         1    0.000000   22.949912   24.344710   27.429155
       117       117         1    0.000000   21.401476   33.065289   29.792476
       118       118         1    0.000000   21.708369   32.956210   25.109851
       119       119         1    0.000000   22.643019   30.194789   32.111779
       120       120         1    0.000000   22.949912   30.085710   27.429155
       121       121         1    0.000000   17.027716    4.360289   32.133788
       122       122         1    0.000000   17.334609    4.251210   27.451163
       123       123         1    0.000000   18.269259    1.489789   34.453091
       124       124         1    0.000000   18.576152    1.380710   29.770467
       125       125         1    0.000000   17.027716   10.101289   32.133788
       126       126         1    0.000000   17.334609    9.992210   27.451163
       127       127         1    0.000000   18.269259    7.230789   34.453091
       128       128         1    0.000000   18.576152    7.121710   29.770467
       129       129         1    0.000000   17.027716   15.842289   32.133788
       130       130         1    0.000000   17.334609   15.733210   27.451163
       131       131         1    0.000000   18.269259   12.971789   34.453091
       132       132         1    0.000000   18.576152   12.862710   29.770467
       133       133         1    0.000000   17.027716   21.583289   32.133788
       134       134         1    0.000000   17.334609   21.474210   27.451163
       135       135         1    0.000000   18.269259   18.712789   34.453091
       136       136         1    0.000000   18.576152   18.603710   29.770467
       137       137         1    0.000000   17.027716   27.324289   32.133788
       138       138         1    0.000000   17.334609   27.215210   27.451163
       139       139         1    0.000000   18.269259   24.453789   34.453091
       140       140         1    0.000000   18.576152   24.344710   29.770467
       141       141         1    0.000000   17.027716   33.065289   32.133788
       142       142         1    0.000000   17.334609   32.956210   27.451163
       143       143         1    0.000000   18.269259   30.194789   34.453091
       144       144         1    0.000000   18.576152   30.085710   29.770467
       145       145         1    0.000000   12.653955    4.360289   34.475100
       146       146         1    0.000000   12.960848    4.251210   29.792476
       147       147         1    0.000000   13.895499    1.489789   36.794404
       148       148         1    0.000000   14.202392    1.380710   32.111779
       149       149         1    0.000000   12.653955   10.101289   34.475100
       150       150         1    0.000000   12.960848    9.992210   29.792476
       151       151         1    0.000000   13.895499    7.230789   36.794404
       152       152         1    0.000000   14.202392    7.121710   32.111779
       153       153         1    0.000000   12.653955   15.842289   34.475100
       154       154         1    0.000000   12.960848   15.733210   29.792476
       155       155         1    0.000000   13.895499   12.971789   36.794404
       156       156         1    0.000000   14.202392   12.862710   32.111779
       157       157         1    0.000000   12.653955   21.583289   34.475100
       158       158         1    0.000000   12.960848   21.474210   29.792476
       159       159         1    0.000000   13.895499   18.712789   36.794404
       160       160         1    0.000000   14.202392   18.603710   32.111779
       161       161         1    0.000000   12.653955   27.324289   34.475100
       162       162         1    0.000000   12.960848   27.215210   29.792476
       163       163         1    0.000000   13.895499   24.453789   36.794404
       164       164         1    0.000000   14.202392   24.344710   32.111779
       165       165         1    0.000000   12.653955   33.065289   34.475100
       166       166         1    0.000000   12.960848   32.956210   29.792476
       167       167         1    0.000000   13.895499   30.194789   36.794404
       168       168         1    0.000000   14.202392   30.085710   32.111779
       169       169         1    0.000000    8.280195    4.360289   36.816412
       170       170         1    0.000000    8.587088    4.251210   32.133788
       171       171         1    0.000000    9.521739    1.489789   39.135716
       172       172         1    0.000000    9.828632    1.380710   34.453091
       173       173         1    0.000000    8.280195   10.101289   36.816412
       174       174         1    0.000000    8.587088    9.992210   32.133788
       175       175         1    0.000000    9.521739    7.230789   39.135716
       176       176         1    0.000000    9.828632    7.121710   34.453091
       177       177         1    0.000000    8.280195   15.842289   36.816412
       178       178         1    0.000000    8.587088   15.733210   32.133788
       179       179         1    0.000000    9.521739   12.971789   39.135716
       180       180         1    0.000000    9.828632   12.862710   34.453091
       181       181         1    0.000000    8.280195   21.583289   36.816412
       182       182         1    0.000000    8.587088   21.474210   32.133788
       183       183         1    0.000000    9.521739   18.712789   39.135716
       184       184         1    0.000000    9.828632   18.603710   34.453091
       185       185         1    0.000000    8.280195   27.324289   36.816412
       186       186         1    0.000000    8.587088   27.215210   32.133788
       187       187         1    0.000000    9.521739   24.453789   39.135716
       188       188         1    0.000000    9.828632   24.344710   34.453091
       189       189         1    0.000000    8.280195   33.065289   36.816412
       190       190         1    0.000000    8.587088   32.956210   32.133788
       191       191         1    0.000000    9.521739   30.194789   39.135716
       192       192         1    0.000000    9.828632   30.085710   34.453091
       193       193         1    0.000000    3.906435    4.360289   39.157724
       194       194         1    0.000000    4.213328    4.251210   34.475100
       195       195         1    0.000000    5.147978    1.489789   41.477028
       196       196         1    0.000000    5.454871    1.380710   36.794404
       197       197         1    0.000000    3.906435   10.101289   39.157724
       198       198         1    0.000000    4.213328    9.992210   34.475100
       199       199         1    0.000000    5.147978    7.230789   41.477028
       200       200         1    0.000000    5.454871    7.121710   36.794404
       201       201         1    0.000000    3.906435   15.842289   39.157724
       202       202         1    0.000000    4.213328   15.733210   34.475100
       203       203         1    0.000000    5.147978   12.971789   41.477028
       204       204         1    0.000000    5.454871   12.862710   36.794404
       205       205         1    0.000000    3.906435   21.583289   39.157724
       206       206         1    0.000000    4.213328   21.474210   34.475100
       207       207         1    0.000000    5.147978   18.712789   41.477028
       208       208         1    0.000000    5.454871   18.603710   36.794404
       209       209         1    0.000000    3.906435   27.324289   39.157724
       210       210         1    0.000000    4.213328   27.215210   34.475100
       211       211         1    0.000000    5.147978   24.453789   41.477028
       212       212         1    0.000000    5.454871   24.344710   36.794404
       213       213         1    0.000000    3.906435   33.065289   39.157724
       214       214         1    0.000000    4.213328   32.956210   34.475100
       215       215         1    0.000000    5.147978   30.194789   41.477028
       216       216         1    0.000000    5.454871   30.085710   36.794404
       217       217         1    0.000000    0.774218    1.489789   43.818340
       218       218         1    0.000000    1.081111    1.380710   39.135716
       219       219         1    0.000000    0.774218    7.230789   43.818340
       220       220         1    0.000000    1.081111    7.121710   39.135716
       221       221         1    0.000000    0.774218   12.971789   43.818340
       222       222         1    0.000000    1.081111   12.862710   39.135716
       223       223         1    0.000000    0.774218   18.712789   43.818340
       224       224         1    0.000000    1.081111   18.603710   39.135716
       225       225         1    0.000000    0.774218   24.453789   43.818340
       226       226         1    0.000000    1.081111   24.344710   39.135716
       227       227         1    0.000000    0.774218   30.194789   43.818340
       228       228         1    0.000000    1.081111   30.085710   39.135716
       229       229         1    0.000000   29.535211    4.360289   34.475100
       230       230         1    0.000000   29.842103    4.251210   29.792476
       231       231         1    0.000000   30.776754    1.489789   36.794404
       232       232         1    0.000000   31.083647    1.380710   32.111779
       233       233         1    0.000000   29.535211   10.101289   34.475100
       234       234         1    0.000000   29.842103    9.992210   29.792476
       235       235         1    0.000000   30.776754    7.230789   36.794404
       236       236         1    0.000000   31.083647    7.121710   32.111779
       237       237         1    0.000000   29.535211   15.842289   34.475100
       238       238         1    0.000000   29.842103   15.733210   29.792476
       239       239         1    0.000000   30.776754   12.971789   36.794404
       240       240         1    0.000000   31.083647   12.862710   32.111779
       241       241         1    0.000000   29.535211   21.583289   34.475100
       242       242         1    0.000000   29.842103   21.474210   29.792476
       243       243         1    0.000000   30.776754   18.712789   36.794404
       244       244         1    0.000000   31.083647   18.603710   32.111779
       245       245         1    0.000000   29.535211   27.324289   34.475100
       246       246         1    0.000000   29.842103   27.215210   29.792476
       247       247         1    0.000000   30.776754   24.453789   36.794404
       248       248         1    0.000000   31.083647   24.344710   32.111779
       249       249         1    0.000000   29.535211   33.065289   34.475100
       250       250         1    0.000000   29.842103   32.956210   29.792476
       251       251         1    0.000000   30.776754   30.194789   36.794404
       252       252         1    0.000000   31.083647   30.085710   32.111779
       253       253         1    0.000000   25.161450    4.360289   36.816412
       254       254         1    0.000000   25.468343    4.251210   32.133788
       255       255         1    0.000000   26.402994    1.489789   39.135716
       256       256         1    0.000000   26.709887    1.380710   34.453091
       257       257         1    0.000000   25.161450   10.101289   36.816412
       258       258         1    0.000000   25.468343    9.992210   32.133788
       259       259         1    0.000000   26.402994    7.230789   39.135716
       260       260         1    0.000000   26.709887    7.121710   34.453091
       261       261         1    0.000000   25.161450   15.842289   36.816412
       262       262         1    0.000000   25.468343   15.733210   32.133788
       263       263         1    0.000000   26.402994   12.971789   39.135716
       264       264         1    0.000000   26.709887   12.862710   34.453091
       265       265         1    0.000000   25.161450   21.583289   36.816412
       266       266         1    0.000000   25.468343   21.474210   32.133788
       267       267         1    0.000000   26.402994   18.712789   39.135716
       268       268         1    0.000000   26.709887   18.603710   34.453091
       269       269         1    0.000000   25.161450   27.324289   36.816412
       270       270         1    0.000000   25.468343   27.215210   32.133788
       271       271         1    0.000000   26.402994   24.453789   39.135716
       272       272         1    0.000000   26.709887   24.344710   34.453091
       273       273         1    0.000000   25.161450   33.065289   36.816412
       274       274         1    0.000000   25.468343   32.956210   32.133788
       275       275         1    0.000000   26.402994   30.194789   39.135716
       276       276         1    0.000000   26.709887   30.085710   34.453091
       277       277         1    0.000000   20.787690    4.360289   39.157724
       278       278         1    0.000000   21.094583    4.251210   34.475100
       279       279         1    0.000000   22.029234    1.489789   41.477028
       280       280         1    0.000000   22.336127    1.380710   36.794404
       281       281         1    0.000000   20.787690   10.101289   39.157724
       282       282         1    0.000000   21.094583    9.992210   34.475100
       283       283         1    0.000000   22.029234    7.230789   41.477028
       284       284         1    0.000000   22.336127    7.121710   36.794404
       285       285         1    0.000000   20.787690   15.842289   39.157724
       286       286         1    0.000000   21.094583   15.733210   34.475100
       287       287         1    0.000000   22.029234   12.971789   41.477028
       288       288         1    0.000000   22.336127   12.862710   36.794404
       289       289         1    0.000000   20.787690   21.583289   39.157724
       290       290         1    0.000000   21.094583   21.474210   34.475100
       291       291         1    0.000000   22.029234   18.712789   41.477028
       292       292         1    0.000000   22.336127   18.603710   36.794404
       293       293         1    0.000000   20.787690   27.324289   39.157724
       294       294         1    0.000000   21.094583   27.215210   34.475100
       295       295         1    0.000000   22.029234   24.453789   41.477028
       296       296         1    0.000000   22.336127   24.344710   36.794404
       297       297         1    0.000000   20.787690   33.065289   39.157724
       298       298         1    0.000000   21.094583   32.956210   34.475100
       299       299         1    0.000000   22.029234   30.194789   41.477028
       300       300         1    0.000000   22.336127   30.085710   36.794404
       301       301         1    0.000000   16.413930    4.360289   41.499036
       302       302         1    0.000000   16.720823    4.251210   36.816412
       303       303         1    0.000000   17.655473    1.489789   43.818340
       304       304         1    0.000000   17.962366    1.380710   39.135716
       305       305         1    0.000000   16.413930   10.101289   41.499036
       306       306         1    0.000000   16.720823    9.992210   36.816412
       307       307         1    0.000000   17.655473    7.230789   43.818340
       308       308         1    0.000000   17.962366    7.121710   39.135716
       309       309         1    0.000000   16.413930   15.842289   41.499036
       310       310         1    0.000000   16.720823   15.733210   36.816412
       311       311         1    0.000000   17.655473   12.971789   43.818340
       312       312         1    0.000000   17.962366   12.862710   39.135716
       313       313         1    0.000000   16.413930   21.583289   41.499036
       314       314         1    0.000000   16.720823   21.474210   36.816412
       315       315         1    0.000000   17.655473   18.712789   43.818340
       316       316         1    0.000000   17.962366   18.603710   39.135716
       317       317         1    0.000000   16.413930   27.324289   41.499036
       318       318         1    0.000000   16.720823   27.215210   36.816412
       319       319         1    0.000000   17.655473   24.453789   43.818340
       320       320         1    0.000000   17.962366   24.344710   39.135716
       321       321         1    0.000000   16.413930   33.065289   41.499036
       322       322         1    0.000000   16.720823   32.956210   36.816412
       323       323         1    0.000000   17.655473   30.194789   43.818340
       324       324         1    0.000000   17.962366   30.085710   39.135716
       325       325         1    0.000000   12.040170    4.360289   43.840348
       326       326         1    0.000000   12.347063    4.251210   39.157724
       327       327         1    0.000000   13.281713    1.489789   46.159652
       328       328         1    0.000000   13.588606    1.380710   41.477028
       329       329         1    0.000000   12.040170   10.101289   43.840348
       330       330         1    0.000000   12.347063    9.992210   39.157724
       331       331         1    0.000000   13.281713    7.230789   46.159652
       332       332         1    0.000000   13.588606    7.121710   41.477028
       333       333         1    0.000000   12.040170   15.842289   43.840348
       334       334         1    0.000000   12.347063   15.733210   39.157724
       335       335         1    0.000000   13.281713   12.971789   46.159652
       336       336         1    0.000000   13.588606   12.862710   41.477028
       337       337         1    0.000000   12.040170   21.583289   43.840348
       338       338         1    0.000000   12.347063   21.474210   39.157724
       339       339         1    0.000000   13.281713   18.712789   46.159652
       340       340         1    0.000000   13.588606   18.603710   41.477028
       341       341         1    0.000000   12.040170   27.324289   43.840348
       342       342         1    0.000000   12.347063   27.215210   39.157724
       343       343         1    0.000000   13.281713   24.453789   46.159652
       344       344         1    0.000000   13.588606   24.344710   41.477028
       345       345         1    0.000000   12.040170   33.065289   43.840348
       346       346         1    0.000000   12.347063   32.956210   39.157724
       347       347         1    0.000000   13.281713   30.194789   46.159652
       348       348         1    0.000000   13.588606   30.085710   41.477028
       349       349         1    0.000000    7.666409    4.360289   46.181660
       350       350         1    0.000000    7.973302    4.251210   41.499036
       351       351         1    0.000000    8.907953    1.489789   48.500964
       352       352         1    0.000000    9.214846    1.380710   43.818340
       353       353         1    0.000000    7.666409   10.101289   46.181660
       354       354         1    0.000000    7.973302    9.992210   41.499036
       355       355         1    0.000000    8.907953    7.230789   48.500964
       356       356         1    0.000000    9.214846    7.121710   43.818340
       357       357         1    0.000000    7.666409   15.842289   46.181660
       358       358         1    0.000000    7.973302   15.733210   41.499036
       359       359         1    0.000000    8.907953   12.971789   48.500964
       360       360         1    0.000000    9.214846   12.862710   43.818340
       361       361         1    0.000000    7.666409   21.583289   46.181660
       362       362         1    0.000000    7.973302   21.474210   41.499036
       363       363         1    0.000000    8.907953   18.712789   48.500964
       364       364         1    0.000000    9.214846   18.603710   43.818340
       365       365         1    0.000000    7.666409   27.324289   46.181660
       366       366         1    0.000000    7.973302   27.215210   41.499036
       367       367         1    0.000000    8.907953   24.453789   48.500964
       368       368         1    0.000000    9.214846   24.344710   43.818340
       369       369         1    0.000000    7.666409   33.065289   46.181660
       370       370         1    0.000000    7.973302   32.956210   41.499036
       371       371         1    0.000000    8.907953   30.194789   48.500964
       372       372         1    0.000000    9.214846   30.085710   43.818340
       373       373         1    0.000000    3.292649    4.360289   48.522972