LAMPPS input converted from DLPoly config file

      7946   atoms
      5052   bonds
      3630   angles
       736   impropers

       5   atom types
       2   bond types
       2   angle types
       1   improper types

    0.000000   27.950629 xlo xhi
    0.000000   39.688000 ylo yhi
    0.000000   90.000000 zlo zhi


  Masses

       1   40.080000    
       2   12.010000    
       3   16.000000    
       4   16.000000    
       5   1.0100000    

   Atoms

         1         1         1    0.000000   12.715630    3.720750   25.656712
         2         2         1    0.000000    4.140792    3.720750   28.404563
         3         3         1    0.000000    7.998873    3.720750   28.929522
         4         4         1    0.000000    3.282116    3.720750   32.202332
         5         5         1    0.000000    1.100834    1.240250   28.867338
         6         6         1    0.000000   12.715630    8.681750   25.656712
         7         7         1    0.000000    4.140792    8.681750   28.404563
         8         8         1    0.000000    7.998873    8.681750   28.929522
         9         9         1    0.000000    3.282116    8.681750   32.202332
        10        10         1    0.000000    1.100834    6.201250   28.867338
        11        11         1    0.000000   12.715630   13.642750   25.656712
        12        12         1    0.000000    4.140792   13.642750   28.404563
        13        13         1    0.000000    7.998873   13.642750   28.929522
        14        14         1    0.000000    3.282116   13.642750   32.202332
        15        15         1    0.000000    1.100834   11.162250   28.867338
        16        16         1    0.000000   12.715630   18.603750   25.656712
        17        17         1    0.000000    4.140792   18.603750   28.404563
        18        18         1    0.000000    7.998873   18.603750   28.929522
        19        19         1    0.000000    3.282116   18.603750   32.202332
        20        20         1    0.000000    1.100834   16.123250   28.867338
        21        21         1    0.000000   12.715630   23.564750   25.656712
        22        22         1    0.000000    4.140792   23.564750   28.404563
        23        23         1    0.000000    7.998873   23.564750   28.929522
        24        24         1    0.000000    3.282116   23.564750   32.202332
        25        25         1    0.000000    1.100834   21.084250   28.867338
        26        26         1    0.000000   12.715630   28.525750   25.656712
        27        27         1    0.000000    4.140792   28.525750   28.404563
        28        28         1    0.000000    7.998873   28.525750   28.929522
        29        29         1    0.000000    3.282116   28.525750   32.202332
        30        30         1    0.000000    1.100834   26.045250   28.867338
        31        31         1    0.000000   12.715630   33.486750   25.656712
        32        32         1    0.000000    4.140792   33.486750   28.404563
        33        33         1    0.000000    7.998873   33.486750   28.929522
        34        34         1    0.000000    3.282116   33.486750   32.202332
        35        35         1    0.000000    1.100834   31.006250   28.867338
        36        36         1    0.000000   12.715630   38.447750   25.656712
        37        37         1    0.000000    4.140792   38.447750   28.404563
        38        38         1    0.000000    7.998873   38.447750   28.929522
        39        39         1    0.000000    3.282116   38.447750   32.202332
        40        40         1    0.000000    1.100834   35.967250   28.867338
        41        41         1    0.000000   26.690945    3.720750   25.656712
        42        42         1    0.000000   18.116107    3.720750   28.404563
        43        43         1    0.000000   21.974188    3.720750   28.929522
        44        44         1    0.000000   13.399350    3.720750   31.677373
        45        45         1    0.000000   11.218068    1.240250   28.342380
        46        46         1    0.000000   17.257431    3.720750   32.202332
        47        47         1    0.000000   15.076149    1.240250   28.867338
        48        48         1    0.000000    8.682593    3.720750   34.950183
        49        49         1    0.000000    6.501311    1.240250   31.615189
        50        50         1    0.000000   12.540674    3.720750   35.475141
        51        51         1    0.000000   10.359392    1.240250   32.140148
        52        52         1    0.000000    3.965836    3.720750   38.222993
        53        53         1    0.000000    1.784554    1.240250   34.887999
        54        54         1    0.000000    7.823917    3.720750   38.747951
        55        55         1    0.000000    5.642635    1.240250   35.412958
        56        56         1    0.000000    3.107160    3.720750   42.020761
        57        57         1    0.000000    0.925878    1.240250   38.685768
        58        58         1    0.000000   26.690945    8.681750   25.656712
        59        59         1    0.000000   18.116107    8.681750   28.404563
        60        60         1    0.000000   21.974188    8.681750   28.929522
        61        61         1    0.000000   13.399350    8.681750   31.677373
        62        62         1    0.000000   11.218068    6.201250   28.342380
        63        63         1    0.000000   17.257431    8.681750   32.202332
        64        64         1    0.000000   15.076149    6.201250   28.867338
        65        65         1    0.000000    8.682593    8.681750   34.950183
        66        66         1    0.000000    6.501311    6.201250   31.615189
        67        67         1    0.000000   12.540674    8.681750   35.475141
        68        68         1    0.000000   10.359392    6.201250   32.140148
        69        69         1    0.000000    3.965836    8.681750   38.222993
        70        70         1    0.000000    1.784554    6.201250   34.887999
        71        71         1    0.000000    7.823917    8.681750   38.747951
        72        72         1    0.000000    5.642635    6.201250   35.412958
        73        73         1    0.000000    3.107160    8.681750   42.020761
        74        74         1    0.000000    0.925878    6.201250   38.685768
        75        75         1    0.000000   26.690945   13.642750   25.656712
        76        76         1    0.000000   18.116107   13.642750   28.404563
        77        77         1    0.000000   21.974188   13.642750   28.929522
        78        78         1    0.000000   13.399350   13.642750   31.677373
        79        79         1    0.000000   11.218068   11.162250   28.342380
        80        80         1    0.000000   17.257431   13.642750   32.202332
        81        81         1    0.000000   15.076149   11.162250   28.867338
        82        82         1    0.000000    8.682593   13.642750   34.950183
        83        83         1    0.000000    6.501311   11.162250   31.615189
        84        84         1    0.000000   12.540674   13.642750   35.475141
        85        85         1    0.000000   10.359392   11.162250   32.140148
        86        86         1    0.000000    3.965836   13.642750   38.222993
        87        87         1    0.000000    1.784554   11.162250   34.887999
        88        88         1    0.000000    7.823917   13.642750   38.747951
        89        89         1    0.000000    5.642635   11.162250   35.412958
        90        90         1    0.000000    3.107160   13.642750   42.020761
        91        91         1    0.000000    0.925878   11.162250   38.685768
        92        92         1    0.000000   26.690945   18.603750   25.656712
        93        93         1    0.000000   18.116107   18.603750   28.404563
        94        94         1    0.000000   21.974188   18.603750   28.929522
        95        95         1    0.000000   13.399350   18.603750   31.677373
        96        96         1    0.000000   11.218068   16.123250   28.342380
        97        97         1    0.000000   17.257431   18.603750   32.202332
        98        98         1    0.000000   15.076149   16.123250   28.867338
        99        99         1    0.000000    8.682593   18.603750   34.950183
       100       100         1    0.000000    6.501311   16.123250   31.615189
       101       101         1    0.000000   12.540674   18.603750   35.475141
       102       102         1    0.000000   10.359392   16.123250   32.140148
       103       103         1    0.000000    3.965836   18.603750   38.222993
       104       104         1    0.000000    1.784554   16.123250   34.887999
       105       105         1    0.000000    7.823917   18.603750   38.747951
       106       106         1    0.000000    5.642635   16.123250   35.412958
       107       107         1    0.000000    3.107160   18.603750   42.020761
       108       108         1    0.000000    0.925878   16.123250   38.685768
       109       109         1    0.000000   26.690945   23.564750   25.656712
       110       110         1    0.000000   18.116107   23.564750   28.404563
       111       111         1    0.000000   21.974188   23.564750   28.929522
       112       112         1    0.000000   13.399350   23.564750   31.677373
       113       113         1    0.000000   11.218068   21.084250   28.342380
       114       114         1    0.000000   17.257431   23.564750   32.202332
       115       115         1    0.000000   15.076149   21.084250   28.867338
       116       116         1    0.000000    8.682593   23.564750   34.950183
       117       117         1    0.000000    6.501311   21.084250   31.615189
       118       118         1    0.000000   12.540674   23.564750   35.475141
       119       119         1    0.000000   10.359392   21.084250   32.140148
       120       120         1    0.000000    3.965836   23.564750   38.222993
       121       121         1    0.000000    1.784554   21.084250   34.887999
       122       122         1    0.000000    7.823917   23.564750   38.747951
       123       123         1    0.000000    5.642635   21.084250   35.412958
       124       124         1    0.000000    3.107160   23.564750   42.020761
       125       125         1    0.000000    0.925878   21.084250   38.685768
       126       126         1    0.000000   26.690945   28.525750   25.656712
       127       127         1    0.000000   18.116107   28.525750   28.404563
       128       128         1    0.000000   21.974188   28.525750   28.929522
       129       129         1    0.000000   13.399350   28.525750   31.677373
       130       130         1    0.000000   11.218068   26.045250   28.342380
       131       131         1    0.000000   17.257431   28.525750   32.202332
       132       132         1    0.000000   15.076149   26.045250   28.867338
       133       133         1    0.000000    8.682593   28.525750   34.950183
       134       134         1    0.000000    6.501311   26.045250   31.615189
       135       135         1    0.000000   12.540674   28.525750   35.475141
       136       136         1    0.000000   10.359392   26.045250   32.140148
       137       137         1    0.000000    3.965836   28.525750   38.222993
       138       138         1    0.000000    1.784554   26.045250   34.887999
       139       139         1    0.000000    7.823917   28.525750   38.747951
       140       140         1    0.000000    5.642635   26.045250   35.412958
       141       141         1    0.000000    3.107160   28.525750   42.020761
       142       142         1    0.000000    0.925878   26.045250   38.685768
       143       143         1    0.000000   26.690945   33.486750   25.656712
       144       144         1    0.000000   18.116107   33.486750   28.404563
       145       145         1    0.000000   21.974188   33.486750   28.929522
       146       146         1    0.000000   13.399350   33.486750   31.677373
       147       147         1    0.000000   11.218068   31.006250   28.342380
       148       148         1    0.000000   17.257431   33.486750   32.202332
       149       149         1    0.000000   15.076149   31.006250   28.867338
       150       150         1    0.000000    8.682593   33.486750   34.950183
       151       151         1    0.000000    6.501311   31.006250   31.615189
       152       152         1    0.000000   12.540674   33.486750   35.475141
       153       153         1    0.000000   10.359392   31.006250   32.140148
       154       154         1    0.000000    3.965836   33.486750   38.222993
       155       155         1    0.000000    1.784554   31.006250   34.887999
       156       156         1    0.000000    7.823917   33.486750   38.747951
       157       157         1    0.000000    5.642635   31.006250   35.412958
       158       158         1    0.000000    3.107160   33.486750   42.020761
       159       159         1    0.000000    0.925878   31.006250   38.685768
       160       160         1    0.000000   26.690945   38.447750   25.656712
       161       161         1    0.000000   18.116107   38.447750   28.404563
       162       162         1    0.000000   21.974188   38.447750   28.929522
       163       163         1    0.000000   13.399350   38.447750   31.677373
       164       164         1    0.000000   11.218068   35.967250   28.342380
       165       165         1    0.000000   17.257431   38.447750   32.202332
       166       166         1    0.000000   15.076149   35.967250   28.867338
       167       167         1    0.000000    8.682593   38.447750   34.950183
       168       168         1    0.000000    6.501311   35.967250   31.615189
       169       169         1    0.000000   12.540674   38.447750   35.475141
       170       170         1    0.000000   10.359392   35.967250   32.140148
       171       171         1    0.000000    3.965836   38.447750   38.222993
       172       172         1    0.000000    1.784554   35.967250   34.887999
       173       173         1    0.000000    7.823917   38.447750   38.747951
       174       174         1    0.000000    5.642635   35.967250   35.412958
       175       175         1    0.000000    3.107160   38.447750   42.020761
       176       176         1    0.000000    0.925878   35.967250   38.685768
       177       177         1    0.000000   27.374664    3.720750   31.677373
       178       178         1    0.000000   25.193382    1.240250   28.342380
       179       179         1    0.000000   22.657907    3.720750   34.950183
       180       180         1    0.000000   20.476625    1.240250   31.615189
       181       181         1    0.000000   26.515988    3.720750   35.475141
       182       182         1    0.000000   24.334706    1.240250   32.140148
       183       183         1    0.000000   17.941150    3.720750   38.222993
       184       184         1    0.000000   15.759868    1.240250   34.887999
       185       185         1    0.000000   21.799231    3.720750   38.747951
       186       186         1    0.000000   19.617949    1.240250   35.412958
       187       187         1    0.000000   13.224393    3.720750   41.495802
       188       188         1    0.000000   11.043111    1.240250   38.160809
       189       189         1    0.000000   17.082474    3.720750   42.020761
       190       190         1    0.000000   14.901192    1.240250   38.685768
       191       191         1    0.000000    8.507636    3.720750   44.768612
       192       192         1    0.000000    6.326354    1.240250   41.433619
       193       193         1    0.000000   12.365717    3.720750   45.293571
       194       194         1    0.000000   10.184435    1.240250   41.958578
       195       195         1    0.000000    3.790879    3.720750   48.041422
       196       196         1    0.000000    1.609597    1.240250   44.706429
       197       197         1    0.000000    7.648960    3.720750   48.566381
       198       198         1    0.000000    5.467678    1.240250   45.231388
       199       199         1    0.000000    2.932203    3.720750   51.839191
       200       200         1    0.000000    0.750921    1.240250   48.504198
       201       201         1    0.000000   27.374664    8.681750   31.677373
       202       202         1    0.000000   25.193382    6.201250   28.342380
       203       203         1    0.000000   22.657907    8.681750   34.950183
       204       204         1    0.000000   20.476625    6.201250   31.615189
       205       205         1    0.000000   26.515988    8.681750   35.475141
       206       206         1    0.000000   24.334706    6.201250   32.140148
       207       207         1    0.000000   17.941150    8.681750   38.222993
       208       208         1    0.000000   15.759868    6.201250   34.887999
       209       209         1    0.000000   21.799231    8.681750   38.747951
       210       210         1    0.000000   19.617949    6.201250   35.412958
       211       211         1    0.000000   13.224393    8.681750   41.495802
       212       212         1    0.000000   11.043111    6.201250   38.160809
       213       213         1    0.000000   17.082474    8.681750   42.020761
       214       214         1    0.000000   14.901192    6.201250   38.685768
       215       215         1    0.000000    8.507636    8.681750   44.768612
       216       216         1    0.000000    6.326354    6.201250   41.433619
       217       217         1    0.000000   12.365717    8.681750   45.293571
       218       218         1    0.000000   10.184435    6.201250   41.958578
       219       219         1    0.000000    3.790879    8.681750   48.041422
       220       220         1    0.000000    1.609597    6.201250   44.706429
       221       221         1    0.000000    7.648960    8.681750   48.566381
       222       222         1    0.000000    5.467678    6.201250   45.231388
       223       223         1    0.000000    2.932203    8.681750   51.839191
       224       224         1    0.000000    0.750921    6.201250   48.504198
       225       225         1    0.000000   27.374664   13.642750   31.677373
       226       226         1    0.000000   25.193382   11.162250   28.342380
       227       227         1    0.000000   22.657907   13.642750   34.950183
       228       228         1    0.000000   20.476625   11.162250   31.615189
       229       229         1    0.000000   26.515988   13.642750   35.475141
       230       230         1    0.000000   24.334706   11.162250   32.140148
       231       231         1    0.000000   17.941150   13.642750   38.222993
       232       232         1    0.000000   15.759868   11.162250   34.887999
       233       233         1    0.000000   21.799231   13.642750   38.747951
       234       234         1    0.000000   19.617949   11.162250   35.412958
       235       235         1    0.000000   13.224393   13.642750   41.495802
       236       236         1    0.000000   11.043111   11.162250   38.160809
       237       237         1    0.000000   17.082474   13.642750   42.020761
       238       238         1    0.000000   14.901192   11.162250   38.685768
       239       239         1    0.000000    8.507636   13.642750   44.768612
       240       240         1    0.000000    6.326354   11.162250   41.433619
       241       241         1    0.000000   12.365717   13.642750   45.293571
       242       242         1    0.000000   10.184435   11.162250   41.958578
       243       243         1    0.000000    3.790879   13.642750   48.041422
       244       244         1    0.000000    1.609597   11.162250   44.706429
       245       245         1    0.000000    7.648960   13.642750   48.566381
       246       246         1    0.000000    5.467678   11.162250   45.231388
       247       247         1    0.000000    2.932203   13.642750   51.839191
       248       248         1    0.000000    0.750921   11.162250   48.504198
       249       249         1    0.000000   27.374664   18.603750   31.677373
       250       250         1    0.000000   25.193382   16.123250   28.342380
       251       251         1    0.000000   22.657907   18.603750   34.950183
       252       252         1    0.000000   20.476625   16.123250   31.615189
       253       253         1    0.000000   26.515988   18.603750   35.475141
       254       254         1    0.000000   24.334706   16.123250   32.140148
       255       255         1    0.000000   17.941150   18.603750   38.222993
       256       256         1    0.000000   15.759868   16.123250   34.887999
       257       257         1    0.000000   21.799231   18.603750   38.747951
       258       258         1    0.000000   19.617949   16.123250   35.412958
       259       259         1    0.000000   13.224393   18.603750   41.495802
       260       260         1    0.000000   11.043111   16.123250   38.160809
       261       261         1    0.000000   17.082474   18.603750   42.020761
       262       262         1    0.000000   14.901192   16.123250   38.685768
       263       263         1    0.000000    8.507636   18.603750   44.768612
       264       264         1    0.000000    6.326354   16.123250   41.433619
       265       265         1    0.000000   12.365717   18.603750   45.293571
       266       266         1    0.000000   10.184435   16.123250   41.958578
       267       267         1    0.000000    3.790879   18.603750   48.041422
       268       268         1    0.000000    1.609597   16.123250   44.706429
       269       269         1    0.000000    7.648960   18.603750   48.566381
       270       270         1    0.000000    5.467678   16.123250   45.231388
       271       271         1    0.000000    2.932203   18.603750   51.839191
       272       272         1    0.000000    0.750921   16.123250   48.504198
       273       273         1    0.000000   27.374664   23.564750   31.677373
       274       274         1    0.000000   25.193382   21.084250   28.342380
       275       275         1    0.000000   22.657907   23.564750   34.950183
       276       276         1    0.000000   20.476625   21.084250   31.615189
       277       277         1    0.000000   26.515988   23.564750   35.475141
       278       278         1    0.000000   24.334706   21.084250   32.140148
       279       279         1    0.000000   17.941150   23.564750   38.222993
       280       280         1    0.000000   15.759868   21.084250   34.887999
       281       281         1    0.000000   21.799231   23.564750   38.747951
       282       282         1    0.000000   19.617949   21.084250   35.412958
       283       283         1    0.000000   13.224393   23.564750   41.495802
       284       284         1    0.000000   11.043111   21.084250   38.160809
       285       285         1    0.000000   17.082474   23.564750   42.020761
       286       286         1    0.000000   14.901192   21.084250   38.685768
       287       287         1    0.000000    8.507636   23.564750   44.768612
       288       288         1    0.000000    6.326354   21.084250   41.433619
       289       289         1    0.000000   12.365717   23.564750   45.293571
       290       290         1    0.000000   10.184435   21.084250   41.958578
       291       291         1    0.000000    3.790879   23.564750   48.041422
       292       292         1    0.000000    1.609597   21.084250   44.706429
       293       293         1    0.000000    7.648960   23.564750   48.566381
       294       294         1    0.000000    5.467678   21.084250   45.231388
       295       295         1    0.000000    2.932203   23.564750   51.839191
       296       296         1    0.000000    0.750921   21.084250   48.504198
       297       297         1    0.000000   27.374664   28.525750   31.677373
       298       298         1    0.000000   25.193382   26.045250   28.342380
       299       299         1    0.000000   22.657907   28.525750   34.950183
       300       300         1    0.000000   20.476625   26.045250   31.615189
       301       301         1    0.000000   26.515988   28.525750   35.475141
       302       302         1    0.000000   24.334706   26.045250   32.140148
       303       303         1    0.000000   17.941150   28.525750   38.222993
       304       304         1    0.000000   15.759868   26.045250   34.887999
       305       305         1    0.000000   21.799231   28.525750   38.747951
       306       306         1    0.000000   19.617949   26.045250   35.412958
       307       307         1    0.000000   13.224393   28.525750   41.495802
       308       308         1    0.000000   11.043111   26.045250   38.160809
       309       309         1    0.000000   17.082474   28.525750   42.020761
       310       310         1    0.000000   14.901192   26.045250   38.685768
       311       311         1    0.000000    8.507636   28.525750   44.768612
       312       312         1    0.000000    6.326354   26.045250   41.433619
       313       313         1    0.000000   12.365717   28.525750   45.293571
       314       314         1    0.000000   10.184435   26.045250   41.958578
       315       315         1    0.000000    3.790879   28.525750   48.041422
       316       316         1    0.000000    1.609597   26.045250   44.706429
       317       317         1    0.000000    7.648960   28.525750   48.566381
       318       318         1    0.000000    5.467678   26.045250   45.231388
       319       319         1    0.000000    2.932203   28.525750   51.839191
       320       320         1    0.000000    0.750921   26.045250   48.504198
       321       321         1    0.000000   27.374664   33.486750   31.677373
       322       322         1    0.000000   25.193382   31.006250   28.342380
       323       323         1    0.000000   22.657907   33.486750   34.950183
       324       324         1    0.000000   20.476625   31.006250   31.615189
       325       325         1    0.000000   26.515988   33.486750   35.475141
       326       326         1    0.000000   24.334706   31.006250   32.140148
       327       327         1    0.000000   17.941150   33.486750   38.222993
       328       328         1    0.000000   15.759868   31.006250   34.887999
       329       329         1    0.000000   21.799231   33.486750   38.747951
       330       330         1    0.000000   19.617949   31.006250   35.412958
       331       331         1    0.000000   13.224393   33.486750   41.495802
       332       332         1    0.000000   11.043111   31.006250   38.160809
       333       333         1    0.000000   17.082474   33.486750   42.020761
       334       334         1    0.000000   14.901192   31.006250   38.685768
       335       335         1    0.000000    8.507636   33.486750   44.768612
       336       336         1    0.000000    6.326354   31.006250   41.433619
       337       337         1    0.000000   12.365717   33.486750   45.293571
       338       338         1    0.000000   10.184435   31.006250   41.958578
       339       339         1    0.000000    3.790879   33.486750   48.041422
       340       340         1    0.000000    1.609597   31.006250   44.706429
       341       341         1    0.000000    7.648960   33.486750   48.566381
       342       342         1    0.000000    5.467678   31.006250   45.231388
       343       343         1    0.000000    2.932203   33.486750   51.839191
       344       344         1    0.000000    0.750921   31.006250   48.504198
       345       345         1    0.000000   27.374664   38.447750   31.677373
       346       346         1    0.000000   25.193382   35.967250   28.342380
       347       347         1    0.000000   22.657907   38.447750   34.950183
       348       348         1    0.000000   20.476625   35.967250   31.615189
       349       349         1    0.000000   26.515988   38.447750   35.475141
       350       350         1    0.000000   24.334706   35.967250   32.140148
       351       351         1    0.000000   17.941150   38.447750   38.222993
       352       352         1    0.000000   15.759868   35.967250   34.887999
       353       353         1    0.000000   21.799231   38.447750   38.747951
       354       354         1    0.000000   19.617949   35.967250   35.412958
       355       355         1    0.000000   13.224393   38.447750   41.495802
       356       356         1    0.000000   11.043111   35.967250   38.160809
       357       357         1    0.000000   17.082474   38.447750   42.020761
       358       358         1    0.000000   14.901192   35.967250   38.685768
       359       359         1    0.000000    8.507636   38.447750   44.768612
       360       360         1    0.000000    6.326354   35.967250   41.433619
       361       361         1    0.000000   12.365717   38.447750   45.293571
       362       362         1    0.000000   10.184435   35.967250   41.958578
       363       363         1    0.000000    3.790879   38.447750   48.041422
       364       364         1    0.000000    1.609597   35.967250   44.706429
       365       365         1    0.000000    7.648960   38.447750   48.566381
       366       366         1    0.000000    5.467678   35.967250   45.231388
       367       367         1    0.000000    2.932203   38.447750   51.839191
       368       368         1    0.000000    0.750921   35.967250   48.504198
       369       369         1    0.000000   27.199708    3.720750   41.495802
       370       370         1    0.000000   25.018426    1.240250   38.160809
       371       371         1    0.000000   22.482951    3.720750   44.768612
       372       372         1    0.000000   20.301669    1.240250   41.433619
       373       373         1    0.000000   26.341032    3.720750   45.293571