LAMPPS input converted from DLPoly config file

     12147   atoms
      7714   bonds
      5585   angles
      1152   impropers

       5   atom types
       2   bond types
       2   angle types
       1   improper types

    0.000000   47.802000 xlo xhi
    0.000000   34.446000 ylo yhi
    0.000000   90.000000 zlo zhi


  Masses

       1   40.080000    
       2   12.010000    
       3   16.000000    
       4   16.000000    
       5   1.0100000    

   Atoms

         1         1         1    0.000000    4.659898    4.360289   28.876750
         2         2         1    0.000000    0.676398    4.251210   26.396250
         3         3         1    0.000000    7.290602    1.489789   28.876750
         4         4         1    0.000000    3.307102    1.380710   26.396250
         5         5         1    0.000000    4.659898   10.101289   28.876750
         6         6         1    0.000000    0.676398    9.992210   26.396250
         7         7         1    0.000000    7.290602    7.230789   28.876750
         8         8         1    0.000000    3.307102    7.121710   26.396250
         9         9         1    0.000000    4.659898   15.842289   28.876750
        10        10         1    0.000000    0.676398   15.733210   26.396250
        11        11         1    0.000000    7.290602   12.971789   28.876750
        12        12         1    0.000000    3.307102   12.862710   26.396250
        13        13         1    0.000000    4.659898   21.583289   28.876750
        14        14         1    0.000000    0.676398   21.474210   26.396250
        15        15         1    0.000000    7.290602   18.712789   28.876750
        16        16         1    0.000000    3.307102   18.603710   26.396250
        17        17         1    0.000000    4.659898   27.324289   28.876750
        18        18         1    0.000000    0.676398   27.215210   26.396250
        19        19         1    0.000000    7.290602   24.453789   28.876750
        20        20         1    0.000000    3.307102   24.344710   26.396250
        21        21         1    0.000000    4.659898   33.065289   28.876750
        22        22         1    0.000000    0.676398   32.956210   26.396250
        23        23         1    0.000000    7.290602   30.194789   28.876750
        24        24         1    0.000000    3.307102   30.085710   26.396250
        25        25         1    0.000000    4.659898    4.360289   33.837750
        26        26         1    0.000000    0.676398    4.251210   31.357250
        27        27         1    0.000000    7.290602    1.489789   33.837750
        28        28         1    0.000000    3.307102    1.380710   31.357250
        29        29         1    0.000000    4.659898   10.101289   33.837750
        30        30         1    0.000000    0.676398    9.992210   31.357250
        31        31         1    0.000000    7.290602    7.230789   33.837750
        32        32         1    0.000000    3.307102    7.121710   31.357250
        33        33         1    0.000000    4.659898   15.842289   33.837750
        34        34         1    0.000000    0.676398   15.733210   31.357250
        35        35         1    0.000000    7.290602   12.971789   33.837750
        36        36         1    0.000000    3.307102   12.862710   31.357250
        37        37         1    0.000000    4.659898   21.583289   33.837750
        38        38         1    0.000000    0.676398   21.474210   31.357250
        39        39         1    0.000000    7.290602   18.712789   33.837750
        40        40         1    0.000000    3.307102   18.603710   31.357250
        41        41         1    0.000000    4.659898   27.324289   33.837750
        42        42         1    0.000000    0.676398   27.215210   31.357250
        43        43         1    0.000000    7.290602   24.453789   33.837750
        44        44         1    0.000000    3.307102   24.344710   31.357250
        45        45         1    0.000000    4.659898   33.065289   33.837750
        46        46         1    0.000000    0.676398   32.956210   31.357250
        47        47         1    0.000000    7.290602   30.194789   33.837750
        48        48         1    0.000000    3.307102   30.085710   31.357250
        49        49         1    0.000000    4.659898    4.360289   38.798750
        50        50         1    0.000000    0.676398    4.251210   36.318250
        51        51         1    0.000000    7.290602    1.489789   38.798750
        52        52         1    0.000000    3.307102    1.380710   36.318250
        53        53         1    0.000000    4.659898   10.101289   38.798750
        54        54         1    0.000000    0.676398    9.992210   36.318250
        55        55         1    0.000000    7.290602    7.230789   38.798750
        56        56         1    0.000000    3.307102    7.121710   36.318250
        57        57         1    0.000000    4.659898   15.842289   38.798750
        58        58         1    0.000000    0.676398   15.733210   36.318250
        59        59         1    0.000000    7.290602   12.971789   38.798750
        60        60         1    0.000000    3.307102   12.862710   36.318250
        61        61         1    0.000000    4.659898   21.583289   38.798750
        62        62         1    0.000000    0.676398   21.474210   36.318250
        63        63         1    0.000000    7.290602   18.712789   38.798750
        64        64         1    0.000000    3.307102   18.603710   36.318250
        65        65         1    0.000000    4.659898   27.324289   38.798750
        66        66         1    0.000000    0.676398   27.215210   36.318250
        67        67         1    0.000000    7.290602   24.453789   38.798750
        68        68         1    0.000000    3.307102   24.344710   36.318250
        69        69         1    0.000000    4.659898   33.065289   38.798750
        70        70         1    0.000000    0.676398   32.956210   36.318250
        71        71         1    0.000000    7.290602   30.194789   38.798750
        72        72         1    0.000000    3.307102   30.085710   36.318250
        73        73         1    0.000000    4.659898    4.360289   43.759750
        74        74         1    0.000000    0.676398    4.251210   41.279250
        75        75         1    0.000000    7.290602    1.489789   43.759750
        76        76         1    0.000000    3.307102    1.380710   41.279250
        77        77         1    0.000000    4.659898   10.101289   43.759750
        78        78         1    0.000000    0.676398    9.992210   41.279250
        79        79         1    0.000000    7.290602    7.230789   43.759750
        80        80         1    0.000000    3.307102    7.121710   41.279250
        81        81         1    0.000000    4.659898   15.842289   43.759750
        82        82         1    0.000000    0.676398   15.733210   41.279250
        83        83         1    0.000000    7.290602   12.971789   43.759750
        84        84         1    0.000000    3.307102   12.862710   41.279250
        85        85         1    0.000000    4.659898   21.583289   43.759750
        86        86         1    0.000000    0.676398   21.474210   41.279250
        87        87         1    0.000000    7.290602   18.712789   43.759750
        88        88         1    0.000000    3.307102   18.603710   41.279250
        89        89         1    0.000000    4.659898   27.324289   43.759750
        90        90         1    0.000000    0.676398   27.215210   41.279250
        91        91         1    0.000000    7.290602   24.453789   43.759750
        92        92         1    0.000000    3.307102   24.344710   41.279250
        93        93         1    0.000000    4.659898   33.065289   43.759750
        94        94         1    0.000000    0.676398   32.956210   41.279250
        95        95         1    0.000000    7.290602   30.194789   43.759750
        96        96         1    0.000000    3.307102   30.085710   41.279250
        97        97         1    0.000000    4.659898    4.360289   48.720750
        98        98         1    0.000000    0.676398    4.251210   46.240250
        99        99         1    0.000000    7.290602    1.489789   48.720750
       100       100         1    0.000000    3.307102    1.380710   46.240250
       101       101         1    0.000000    4.659898   10.101289   48.720750
       102       102         1    0.000000    0.676398    9.992210   46.240250
       103       103         1    0.000000    7.290602    7.230789   48.720750
       104       104         1    0.000000    3.307102    7.121710   46.240250
       105       105         1    0.000000    4.659898   15.842289   48.720750
       106       106         1    0.000000    0.676398   15.733210   46.240250
       107       107         1    0.000000    7.290602   12.971789   48.720750
       108       108         1    0.000000    3.307102   12.862710   46.240250
       109       109         1    0.000000    4.659898   21.583289   48.720750
       110       110         1    0.000000    0.676398   21.474210   46.240250
       111       111         1    0.000000    7.290602   18.712789   48.720750
       112       112         1    0.000000    3.307102   18.603710   46.240250
       113       113         1    0.000000    4.659898   27.324289   48.720750
       114       114         1    0.000000    0.676398   27.215210   46.240250
       115       115         1    0.000000    7.290602   24.453789   48.720750
       116       116         1    0.000000    3.307102   24.344710   46.240250
       117       117         1    0.000000    4.659898   33.065289   48.720750
       118       118         1    0.000000    0.676398   32.956210   46.240250
       119       119         1    0.000000    7.290602   30.194789   48.720750
       120       120         1    0.000000    3.307102   30.085710   46.240250
       121       121         1    0.000000    4.659898    4.360289   53.681750
       122       122         1    0.000000    0.676398    4.251210   51.201250
       123       123         1    0.000000    7.290602    1.489789   53.681750
       124       124         1    0.000000    3.307102    1.380710   51.201250
       125       125         1    0.000000    4.659898   10.101289   53.681750
       126       126         1    0.000000    0.676398    9.992210   51.201250
       127       127         1    0.000000    7.290602    7.230789   53.681750
       128       128         1    0.000000    3.307102    7.121710   51.201250
       129       129         1    0.000000    4.659898   15.842289   53.681750
       130       130         1    0.000000    0.676398   15.733210   51.201250
       131       131         1    0.000000    7.290602   12.971789   53.681750
       132       132         1    0.000000    3.307102   12.862710   51.201250
       133       133         1    0.000000    4.659898   21.583289   53.681750
       134       134         1    0.000000    0.676398   21.474210   51.201250
       135       135         1    0.000000    7.290602   18.712789   53.681750
       136       136         1    0.000000    3.307102   18.603710   51.201250
       137       137         1    0.000000    4.659898   27.324289   53.681750
       138       138         1    0.000000    0.676398   27.215210   51.201250
       139       139         1    0.000000    7.290602   24.453789   53.681750
       140       140         1    0.000000    3.307102   24.344710   51.201250
       141       141         1    0.000000    4.659898   33.065289   53.681750
       142       142         1    0.000000    0.676398   32.956210   51.201250
       143       143         1    0.000000    7.290602   30.194789   53.681750
       144       144         1    0.000000    3.307102   30.085710   51.201250
       145       145         1    0.000000    4.659898    4.360289   58.642750
       146       146         1    0.000000    0.676398    4.251210   56.162250
       147       147         1    0.000000    7.290602    1.489789   58.642750
       148       148         1    0.000000    3.307102    1.380710   56.162250
       149       149         1    0.000000    4.659898   10.101289   58.642750
       150       150         1    0.000000    0.676398    9.992210   56.162250
       151       151         1    0.000000    7.290602    7.230789   58.642750
       152       152         1    0.000000    3.307102    7.121710   56.162250
       153       153         1    0.000000    4.659898   15.842289   58.642750
       154       154         1    0.000000    0.676398   15.733210   56.162250
       155       155         1    0.000000    7.290602   12.971789   58.642750
       156       156         1    0.000000    3.307102   12.862710   56.162250
       157       157         1    0.000000    4.659898   21.583289   58.642750
       158       158         1    0.000000    0.676398   21.474210   56.162250
       159       159         1    0.000000    7.290602   18.712789   58.642750
       160       160         1    0.000000    3.307102   18.603710   56.162250
       161       161         1    0.000000    4.659898   27.324289   58.642750
       162       162         1    0.000000    0.676398   27.215210   56.162250
       163       163         1    0.000000    7.290602   24.453789   58.642750
       164       164         1    0.000000    3.307102   24.344710   56.162250
       165       165         1    0.000000    4.659898   33.065289   58.642750
       166       166         1    0.000000    0.676398   32.956210   56.162250
       167       167         1    0.000000    7.290602   30.194789   58.642750
       168       168         1    0.000000    3.307102   30.085710   56.162250
       169       169         1    0.000000    4.659898    4.360289   63.603750
       170       170         1    0.000000    0.676398    4.251210   61.123250
       171       171         1    0.000000    7.290602    1.489789   63.603750
       172       172         1    0.000000    3.307102    1.380710   61.123250
       173       173         1    0.000000    4.659898   10.101289   63.603750
       174       174         1    0.000000    0.676398    9.992210   61.123250
       175       175         1    0.000000    7.290602    7.230789   63.603750
       176       176         1    0.000000    3.307102    7.121710   61.123250
       177       177         1    0.000000    4.659898   15.842289   63.603750
       178       178         1    0.000000    0.676398   15.733210   61.123250
       179       179         1    0.000000    7.290602   12.971789   63.603750
       180       180         1    0.000000    3.307102   12.862710   61.123250
       181       181         1    0.000000    4.659898   21.583289   63.603750
       182       182         1    0.000000    0.676398   21.474210   61.123250
       183       183         1    0.000000    7.290602   18.712789   63.603750
       184       184         1    0.000000    3.307102   18.603710   61.123250
       185       185         1    0.000000    4.659898   27.324289   63.603750
       186       186         1    0.000000    0.676398   27.215210   61.123250
       187       187         1    0.000000    7.290602   24.453789   63.603750
       188       188         1    0.000000    3.307102   24.344710   61.123250
       189       189         1    0.000000    4.659898   33.065289   63.603750
       190       190         1    0.000000    0.676398   32.956210   61.123250
       191       191         1    0.000000    7.290602   30.194789   63.603750
       192       192         1    0.000000    3.307102   30.085710   61.123250
       193       193         1    0.000000   12.626898    4.360289   28.876750
       194       194         1    0.000000    8.643398    4.251210   26.396250
       195       195         1    0.000000   15.257602    1.489789   28.876750
       196       196         1    0.000000   11.274102    1.380710   26.396250
       197       197         1    0.000000   12.626898   10.101289   28.876750
       198       198         1    0.000000    8.643398    9.992210   26.396250
       199       199         1    0.000000   15.257602    7.230789   28.876750
       200       200         1    0.000000   11.274102    7.121710   26.396250
       201       201         1    0.000000   12.626898   15.842289   28.876750
       202       202         1    0.000000    8.643398   15.733210   26.396250
       203       203         1    0.000000   15.257602   12.971789   28.876750
       204       204         1    0.000000   11.274102   12.862710   26.396250
       205       205         1    0.000000   12.626898   21.583289   28.876750
       206       206         1    0.000000    8.643398   21.474210   26.396250
       207       207         1    0.000000   15.257602   18.712789   28.876750
       208       208         1    0.000000   11.274102   18.603710   26.396250
       209       209         1    0.000000   12.626898   27.324289   28.876750
       210       210         1    0.000000    8.643398   27.215210   26.396250
       211       211         1    0.000000   15.257602   24.453789   28.876750
       212       212         1    0.000000   11.274102   24.344710   26.396250
       213       213         1    0.000000   12.626898   33.065289   28.876750
       214       214         1    0.000000    8.643398   32.956210   26.396250
       215       215         1    0.000000   15.257602   30.194789   28.876750
       216       216         1    0.000000   11.274102   30.085710   26.396250
       217       217         1    0.000000   12.626898    4.360289   33.837750
       218       218         1    0.000000    8.643398    4.251210   31.357250
       219       219         1    0.000000   15.257602    1.489789   33.837750
       220       220         1    0.000000   11.274102    1.380710   31.357250
       221       221         1    0.000000   12.626898   10.101289   33.837750
       222       222         1    0.000000    8.643398    9.992210   31.357250
       223       223         1    0.000000   15.257602    7.230789   33.837750
       224       224         1    0.000000   11.274102    7.121710   31.357250
       225       225         1    0.000000   12.626898   15.842289   33.837750
       226       226         1    0.000000    8.643398   15.733210   31.357250
       227       227         1    0.000000   15.257602   12.971789   33.837750
       228       228         1    0.000000   11.274102   12.862710   31.357250
       229       229         1    0.000000   12.626898   21.583289   33.837750
       230       230         1    0.000000    8.643398   21.474210   31.357250
       231       231         1    0.000000   15.257602   18.712789   33.837750
       232       232         1    0.000000   11.274102   18.603710   31.357250
       233       233         1    0.000000   12.626898   27.324289   33.837750
       234       234         1    0.000000    8.643398   27.215210   31.357250
       235       235         1    0.000000   15.257602   24.453789   33.837750
       236       236         1    0.000000   11.274102   24.344710   31.357250
       237       237         1    0.000000   12.626898   33.065289   33.837750
       238       238         1    0.000000    8.643398   32.956210   31.357250
       239       239         1    0.000000   15.257602   30.194789   33.837750
       240       240         1    0.000000   11.274102   30.085710   31.357250
       241       241         1    0.000000   12.626898    4.360289   38.798750
       242       242         1    0.000000    8.643398    4.251210   36.318250
       243       243         1    0.000000   15.257602    1.489789   38.798750
       244       244         1    0.000000   11.274102    1.380710   36.318250
       245       245         1    0.000000   12.626898   10.101289   38.798750
       246       246         1    0.000000    8.643398    9.992210   36.318250
       247       247         1    0.000000   15.257602    7.230789   38.798750
       248       248         1    0.000000   11.274102    7.121710   36.318250
       249       249         1    0.000000   12.626898   15.842289   38.798750
       250       250         1    0.000000    8.643398   15.733210   36.318250
       251       251         1    0.000000   15.257602   12.971789   38.798750
       252       252         1    0.000000   11.274102   12.862710   36.318250
       253       253         1    0.000000   12.626898   21.583289   38.798750
       254       254         1    0.000000    8.643398   21.474210   36.318250
       255       255         1    0.000000   15.257602   18.712789   38.798750
       256       256         1    0.000000   11.274102   18.603710   36.318250
       257       257         1    0.000000   12.626898   27.324289   38.798750
       258       258         1    0.000000    8.643398   27.215210   36.318250
       259       259         1    0.000000   15.257602   24.453789   38.798750
       260       260         1    0.000000   11.274102   24.344710   36.318250
       261       261         1    0.000000   12.626898   33.065289   38.798750
       262       262         1    0.000000    8.643398   32.956210   36.318250
       263       263         1    0.000000   15.257602   30.194789   38.798750
       264       264         1    0.000000   11.274102   30.085710   36.318250
       265       265         1    0.000000   12.626898    4.360289   43.759750
       266       266         1    0.000000    8.643398    4.251210   41.279250
       267       267         1    0.000000   15.257602    1.489789   43.759750
       268       268         1    0.000000   11.274102    1.380710   41.279250
       269       269         1    0.000000   12.626898   10.101289   43.759750
       270       270         1    0.000000    8.643398    9.992210   41.279250
       271       271         1    0.000000   15.257602    7.230789   43.759750
       272       272         1    0.000000   11.274102    7.121710   41.279250
       273       273         1    0.000000   12.626898   15.842289   43.759750
       274       274         1    0.000000    8.643398   15.733210   41.279250
       275       275         1    0.000000   15.257602   12.971789   43.759750
       276       276         1    0.000000   11.274102   12.862710   41.279250
       277       277         1    0.000000   12.626898   21.583289   43.759750
       278       278         1    0.000000    8.643398   21.474210   41.279250
       279       279         1    0.000000   15.257602   18.712789   43.759750
       280       280         1    0.000000   11.274102   18.603710   41.279250
       281       281         1    0.000000   12.626898   27.324289   43.759750
       282       282         1    0.000000    8.643398   27.215210   41.279250
       283       283         1    0.000000   15.257602   24.453789   43.759750
       284       284         1    0.000000   11.274102   24.344710   41.279250
       285       285         1    0.000000   12.626898   33.065289   43.759750
       286       286         1    0.000000    8.643398   32.956210   41.279250
       287       287         1    0.000000   15.257602   30.194789   43.759750
       288       288         1    0.000000   11.274102   30.085710   41.279250
       289       289         1    0.000000   12.626898    4.360289   48.720750
       290       290         1    0.000000    8.643398    4.251210   46.240250
       291       291         1    0.000000   15.257602    1.489789   48.720750
       292       292         1    0.000000   11.274102    1.380710   46.240250
       293       293         1    0.000000   12.626898   10.101289   48.720750
       294       294         1    0.000000    8.643398    9.992210   46.240250
       295       295         1    0.000000   15.257602    7.230789   48.720750
       296       296         1    0.000000   11.274102    7.121710   46.240250
       297       297         1    0.000000   12.626898   15.842289   48.720750
       298       298         1    0.000000    8.643398   15.733210   46.240250
       299       299         1    0.000000   15.257602   12.971789   48.720750
       300       300         1    0.000000   11.274102   12.862710   46.240250
       301       301         1    0.000000   12.626898   21.583289   48.720750
       302       302         1    0.000000    8.643398   21.474210   46.240250
       303       303         1    0.000000   15.257602   18.712789   48.720750
       304       304         1    0.000000   11.274102   18.603710   46.240250
       305       305         1    0.000000   12.626898   27.324289   48.720750
       306       306         1    0.000000    8.643398   27.215210   46.240250
       307       307         1    0.000000   15.257602   24.453789   48.720750
       308       308         1    0.000000   11.274102   24.344710   46.240250
       309       309         1    0.000000   12.626898   33.065289   48.720750
       310       310         1    0.000000    8.643398   32.956210   46.240250
       311       311         1    0.000000   15.257602   30.194789   48.720750
       312       312         1    0.000000   11.274102   30.085710   46.240250
       313       313         1    0.000000   12.626898    4.360289   53.681750
       314       314         1    0.000000    8.643398    4.251210   51.201250
       315       315         1    0.000000   15.257602    1.489789   53.681750
       316       316         1    0.000000   11.274102    1.380710   51.201250
       317       317         1    0.000000   12.626898   10.101289   53.681750
       318       318         1    0.000000    8.643398    9.992210   51.201250
       319       319         1    0.000000   15.257602    7.230789   53.681750
       320       320         1    0.000000   11.274102    7.121710   51.201250
       321       321         1    0.000000   12.626898   15.842289   53.681750
       322       322         1    0.000000    8.643398   15.733210   51.201250
       323       323         1    0.000000   15.257602   12.971789   53.681750
       324       324         1    0.000000   11.274102   12.862710   51.201250
       325       325         1    0.000000   12.626898   21.583289   53.681750
       326       326         1    0.000000    8.643398   21.474210   51.201250
       327       327         1    0.000000   15.257602   18.712789   53.681750
       328       328         1    0.000000   11.274102   18.603710   51.201250
       329       329         1    0.000000   12.626898   27.324289   53.681750
       330       330         1    0.000000    8.643398   27.215210   51.201250
       331       331         1    0.000000   15.257602   24.453789   53.681750
       332       332         1    0.000000   11.274102   24.344710   51.201250
       333       333         1    0.000000   12.626898   33.065289   53.681750
       334       334         1    0.000000    8.643398   32.956210   51.201250
       335       335         1    0.000000   15.257602   30.194789   53.681750
       336       336         1    0.000000   11.274102   30.085710   51.201250
       337       337         1    0.000000   12.626898    4.360289   58.642750
       338       338         1    0.000000    8.643398    4.251210   56.162250
       339       339         1    0.000000   15.257602    1.489789   58.642750
       340       340         1    0.000000   11.274102    1.380710   56.162250
       341       341         1    0.000000   12.626898   10.101289   58.642750
       342       342         1    0.000000    8.643398    9.992210   56.162250
       343       343         1    0.000000   15.257602    7.230789   58.642750
       344       344         1    0.000000   11.274102    7.121710   56.162250
       345       345         1    0.000000   12.626898   15.842289   58.642750
       346       346         1    0.000000    8.643398   15.733210   56.162250
       347       347         1    0.000000   15.257602   12.971789   58.642750
       348       348         1    0.000000   11.274102   12.862710   56.162250
       349       349         1    0.000000   12.626898   21.583289   58.642750
       350       350         1    0.000000    8.643398   21.474210   56.162250
       351       351         1    0.000000   15.257602   18.712789   58.642750
       352       352         1    0.000000   11.274102   18.603710   56.162250
       353       353         1    0.000000   12.626898   27.324289   58.642750
       354       354         1    0.000000    8.643398   27.215210   56.162250
       355       355         1    0.000000   15.257602   24.453789   58.642750
       356       356         1    0.000000   11.274102   24.344710   56.162250
       357       357         1    0.000000   12.626898   33.065289   58.642750
       358       358         1    0.000000    8.643398   32.956210   56.162250
       359       359         1    0.000000   15.257602   30.194789   58.642750
       360       360         1    0.000000   11.274102   30.085710   56.162250
       361       361         1    0.000000   12.626898    4.360289   63.603750
       362       362         1    0.000000    8.643398    4.251210   61.123250
       363       363         1    0.000000   15.257602    1.489789   63.603750
       364       364         1    0.000000   11.274102    1.380710   61.123250
       365       365         1    0.000000   12.626898   10.101289   63.603750
       366       366         1    0.000000    8.643398    9.992210   61.123250
       367       367         1    0.000000   15.257602    7.230789   63.603750
       368       368         1    0.000000   11.274102    7.121710   61.123250
       369       369         1    0.000000   12.626898   15.842289   63.603750
       370       370         1    0.000000    8.643398   15.733210   61.123250
       371       371         1    0.000000   15.257602   12.971789   63.603750
       372       372         1    0.000000   11.274102   12.862710   61.123250
       373       373         1    0.000000   12.626898   21.583289   63.603750