LAMPPS input converted from DLPoly config file

     11073   atoms
      7030   bonds
      5099   angles
      1056   impropers

       5   atom types
       2   bond types
       2   angle types
       1   improper types

    0.000000   37.952856 xlo xhi
    0.000000   39.688000 ylo yhi
    0.000000   90.000000 zlo zhi


  Masses

       1   40.080000    
       2   12.010000    
       3   16.000000    
       4   16.000000    
       5   1.0100000    

   Atoms

         1         1         1    0.000000    2.095273    3.720750   25.729312
         2         2         1    0.000000    2.095273    8.681750   25.729312
         3         3         1    0.000000    2.095273   13.642750   25.729312
         4         4         1    0.000000    2.095273   18.603750   25.729312
         5         5         1    0.000000    2.095273   23.564750   25.729312
         6         6         1    0.000000    2.095273   28.525750   25.729312
         7         7         1    0.000000    2.095273   33.486750   25.729312
         8         8         1    0.000000    2.095273   38.447750   25.729312
         9         9         1    0.000000   21.071701    3.720750   25.729312
        10        10         1    0.000000   12.151441    3.720750   26.957109
        11        11         1    0.000000   15.861171    3.720750   28.139594
        12        12         1    0.000000    6.940911    3.720750   29.367392
        13        13         1    0.000000    5.367492    1.240250   25.706173
        14        14         1    0.000000   10.650641    3.720750   30.549876
        15        15         1    0.000000    9.077222    1.240250   26.888657
        16        16         1    0.000000    1.730381    3.720750   31.777674
        17        17         1    0.000000    0.156962    1.240250   28.116455
        18        18         1    0.000000    5.440112    3.720750   32.960158
        19        19         1    0.000000    3.866692    1.240250   29.298940
        20        20         1    0.000000    0.229582    3.720750   35.370440
        21        21         1    0.000000   21.071701    8.681750   25.729312
        22        22         1    0.000000   12.151441    8.681750   26.957109
        23        23         1    0.000000   15.861171    8.681750   28.139594
        24        24         1    0.000000    6.940911    8.681750   29.367392
        25        25         1    0.000000    5.367492    6.201250   25.706173
        26        26         1    0.000000   10.650641    8.681750   30.549876
        27        27         1    0.000000    9.077222    6.201250   26.888657
        28        28         1    0.000000    1.730381    8.681750   31.777674
        29        29         1    0.000000    0.156962    6.201250   28.116455
        30        30         1    0.000000    5.440112    8.681750   32.960158
        31        31         1    0.000000    3.866692    6.201250   29.298940
        32        32         1    0.000000    0.229582    8.681750   35.370440
        33        33         1    0.000000   21.071701   13.642750   25.729312
        34        34         1    0.000000   12.151441   13.642750   26.957109
        35        35         1    0.000000   15.861171   13.642750   28.139594
        36        36         1    0.000000    6.940911   13.642750   29.367392
        37        37         1    0.000000    5.367492   11.162250   25.706173
        38        38         1    0.000000   10.650641   13.642750   30.549876
        39        39         1    0.000000    9.077222   11.162250   26.888657
        40        40         1    0.000000    1.730381   13.642750   31.777674
        41        41         1    0.000000    0.156962   11.162250   28.116455
        42        42         1    0.000000    5.440112   13.642750   32.960158
        43        43         1    0.000000    3.866692   11.162250   29.298940
        44        44         1    0.000000    0.229582   13.642750   35.370440
        45        45         1    0.000000   21.071701   18.603750   25.729312
        46        46         1    0.000000   12.151441   18.603750   26.957109
        47        47         1    0.000000   15.861171   18.603750   28.139594
        48        48         1    0.000000    6.940911   18.603750   29.367392
        49        49         1    0.000000    5.367492   16.123250   25.706173
        50        50         1    0.000000   10.650641   18.603750   30.549876
        51        51         1    0.000000    9.077222   16.123250   26.888657
        52        52         1    0.000000    1.730381   18.603750   31.777674
        53        53         1    0.000000    0.156962   16.123250   28.116455
        54        54         1    0.000000    5.440112   18.603750   32.960158
        55        55         1    0.000000    3.866692   16.123250   29.298940
        56        56         1    0.000000    0.229582   18.603750   35.370440
        57        57         1    0.000000   21.071701   23.564750   25.729312
        58        58         1    0.000000   12.151441   23.564750   26.957109
        59        59         1    0.000000   15.861171   23.564750   28.139594
        60        60         1    0.000000    6.940911   23.564750   29.367392
        61        61         1    0.000000    5.367492   21.084250   25.706173
        62        62         1    0.000000   10.650641   23.564750   30.549876
        63        63         1    0.000000    9.077222   21.084250   26.888657
        64        64         1    0.000000    1.730381   23.564750   31.777674
        65        65         1    0.000000    0.156962   21.084250   28.116455
        66        66         1    0.000000    5.440112   23.564750   32.960158
        67        67         1    0.000000    3.866692   21.084250   29.298940
        68        68         1    0.000000    0.229582   23.564750   35.370440
        69        69         1    0.000000   21.071701   28.525750   25.729312
        70        70         1    0.000000   12.151441   28.525750   26.957109
        71        71         1    0.000000   15.861171   28.525750   28.139594
        72        72         1    0.000000    6.940911   28.525750   29.367392
        73        73         1    0.000000    5.367492   26.045250   25.706173
        74        74         1    0.000000   10.650641   28.525750   30.549876
        75        75         1    0.000000    9.077222   26.045250   26.888657
        76        76         1    0.000000    1.730381   28.525750   31.777674
        77        77         1    0.000000    0.156962   26.045250   28.116455
        78        78         1    0.000000    5.440112   28.525750   32.960158
        79        79         1    0.000000    3.866692   26.045250   29.298940
        80        80         1    0.000000    0.229582   28.525750   35.370440
        81        81         1    0.000000   21.071701   33.486750   25.729312
        82        82         1    0.000000   12.151441   33.486750   26.957109
        83        83         1    0.000000   15.861171   33.486750   28.139594
        84        84         1    0.000000    6.940911   33.486750   29.367392
        85        85         1    0.000000    5.367492   31.006250   25.706173
        86        86         1    0.000000   10.650641   33.486750   30.549876
        87        87         1    0.000000    9.077222   31.006250   26.888657
        88        88         1    0.000000    1.730381   33.486750   31.777674
        89        89         1    0.000000    0.156962   31.006250   28.116455
        90        90         1    0.000000    5.440112   33.486750   32.960158
        91        91         1    0.000000    3.866692   31.006250   29.298940
        92        92         1    0.000000    0.229582   33.486750   35.370440
        93        93         1    0.000000   21.071701   38.447750   25.729312
        94        94         1    0.000000   12.151441   38.447750   26.957109
        95        95         1    0.000000   15.861171   38.447750   28.139594
        96        96         1    0.000000    6.940911   38.447750   29.367392
        97        97         1    0.000000    5.367492   35.967250   25.706173
        98        98         1    0.000000   10.650641   38.447750   30.549876
        99        99         1    0.000000    9.077222   35.967250   26.888657
       100       100         1    0.000000    1.730381   38.447750   31.777674
       101       101         1    0.000000    0.156962   35.967250   28.116455
       102       102         1    0.000000    5.440112   38.447750   32.960158
       103       103         1    0.000000    3.866692   35.967250   29.298940
       104       104         1    0.000000    0.229582   38.447750   35.370440
       105       105         1    0.000000   31.127869    3.720750   26.957109
       106       106         1    0.000000   34.837599    3.720750   28.139594
       107       107         1    0.000000   25.917339    3.720750   29.367392
       108       108         1    0.000000   24.343920    1.240250   25.706173
       109       109         1    0.000000   29.627069    3.720750   30.549876
       110       110         1    0.000000   28.053650    1.240250   26.888657
       111       111         1    0.000000   20.706809    3.720750   31.777674
       112       112         1    0.000000   19.133390    1.240250   28.116455
       113       113         1    0.000000   24.416540    3.720750   32.960158
       114       114         1    0.000000   22.843120    1.240250   29.298940
       115       115         1    0.000000   15.496279    3.720750   34.187956
       116       116         1    0.000000   13.922860    1.240250   30.526737
       117       117         1    0.000000   19.206010    3.720750   35.370440
       118       118         1    0.000000   17.632591    1.240250   31.709222
       119       119         1    0.000000   10.285749    3.720750   36.598238
       120       120         1    0.000000    8.712330    1.240250   32.937020
       121       121         1    0.000000   13.995480    3.720750   37.780723
       122       122         1    0.000000   12.422061    1.240250   34.119504
       123       123         1    0.000000    5.075220    3.720750   39.008520
       124       124         1    0.000000    3.501800    1.240250   35.347302
       125       125         1    0.000000    8.784950    3.720750   40.191005
       126       126         1    0.000000    7.211531    1.240250   36.529786
       127       127         1    0.000000    3.574421    3.720750   42.601287
       128       128         1    0.000000    2.001001    1.240250   38.940068
       129       129         1    0.000000   31.127869    8.681750   26.957109
       130       130         1    0.000000   34.837599    8.681750   28.139594
       131       131         1    0.000000   25.917339    8.681750   29.367392
       132       132         1    0.000000   24.343920    6.201250   25.706173
       133       133         1    0.000000   29.627069    8.681750   30.549876
       134       134         1    0.000000   28.053650    6.201250   26.888657
       135       135         1    0.000000   20.706809    8.681750   31.777674
       136       136         1    0.000000   19.133390    6.201250   28.116455
       137       137         1    0.000000   24.416540    8.681750   32.960158
       138       138         1    0.000000   22.843120    6.201250   29.298940
       139       139         1    0.000000   15.496279    8.681750   34.187956
       140       140         1    0.000000   13.922860    6.201250   30.526737
       141       141         1    0.000000   19.206010    8.681750   35.370440
       142       142         1    0.000000   17.632591    6.201250   31.709222
       143       143         1    0.000000   10.285749    8.681750   36.598238
       144       144         1    0.000000    8.712330    6.201250   32.937020
       145       145         1    0.000000   13.995480    8.681750   37.780723
       146       146         1    0.000000   12.422061    6.201250   34.119504
       147       147         1    0.000000    5.075220    8.681750   39.008520
       148       148         1    0.000000    3.501800    6.201250   35.347302
       149       149         1    0.000000    8.784950    8.681750   40.191005
       150       150         1    0.000000    7.211531    6.201250   36.529786
       151       151         1    0.000000    3.574421    8.681750   42.601287
       152       152         1    0.000000    2.001001    6.201250   38.940068
       153       153         1    0.000000   31.127869   13.642750   26.957109
       154       154         1    0.000000   34.837599   13.642750   28.139594
       155       155         1    0.000000   25.917339   13.642750   29.367392
       156       156         1    0.000000   24.343920   11.162250   25.706173
       157       157         1    0.000000   29.627069   13.642750   30.549876
       158       158         1    0.000000   28.053650   11.162250   26.888657
       159       159         1    0.000000   20.706809   13.642750   31.777674
       160       160         1    0.000000   19.133390   11.162250   28.116455
       161       161         1    0.000000   24.416540   13.642750   32.960158
       162       162         1    0.000000   22.843120   11.162250   29.298940
       163       163         1    0.000000   15.496279   13.642750   34.187956
       164       164         1    0.000000   13.922860   11.162250   30.526737
       165       165         1    0.000000   19.206010   13.642750   35.370440
       166       166         1    0.000000   17.632591   11.162250   31.709222
       167       167         1    0.000000   10.285749   13.642750   36.598238
       168       168         1    0.000000    8.712330   11.162250   32.937020
       169       169         1    0.000000   13.995480   13.642750   37.780723
       170       170         1    0.000000   12.422061   11.162250   34.119504
       171       171         1    0.000000    5.075220   13.642750   39.008520
       172       172         1    0.000000    3.501800   11.162250   35.347302
       173       173         1    0.000000    8.784950   13.642750   40.191005
       174       174         1    0.000000    7.211531   11.162250   36.529786
       175       175         1    0.000000    3.574421   13.642750   42.601287
       176       176         1    0.000000    2.001001   11.162250   38.940068
       177       177         1    0.000000   31.127869   18.603750   26.957109
       178       178         1    0.000000   34.837599   18.603750   28.139594
       179       179         1    0.000000   25.917339   18.603750   29.367392
       180       180         1    0.000000   24.343920   16.123250   25.706173
       181       181         1    0.000000   29.627069   18.603750   30.549876
       182       182         1    0.000000   28.053650   16.123250   26.888657
       183       183         1    0.000000   20.706809   18.603750   31.777674
       184       184         1    0.000000   19.133390   16.123250   28.116455
       185       185         1    0.000000   24.416540   18.603750   32.960158
       186       186         1    0.000000   22.843120   16.123250   29.298940
       187       187         1    0.000000   15.496279   18.603750   34.187956
       188       188         1    0.000000   13.922860   16.123250   30.526737
       189       189         1    0.000000   19.206010   18.603750   35.370440
       190       190         1    0.000000   17.632591   16.123250   31.709222
       191       191         1    0.000000   10.285749   18.603750   36.598238
       192       192         1    0.000000    8.712330   16.123250   32.937020
       193       193         1    0.000000   13.995480   18.603750   37.780723
       194       194         1    0.000000   12.422061   16.123250   34.119504
       195       195         1    0.000000    5.075220   18.603750   39.008520
       196       196         1    0.000000    3.501800   16.123250   35.347302
       197       197         1    0.000000    8.784950   18.603750   40.191005
       198       198         1    0.000000    7.211531   16.123250   36.529786
       199       199         1    0.000000    3.574421   18.603750   42.601287
       200       200         1    0.000000    2.001001   16.123250   38.940068
       201       201         1    0.000000   31.127869   23.564750   26.957109
       202       202         1    0.000000   34.837599   23.564750   28.139594
       203       203         1    0.000000   25.917339   23.564750   29.367392
       204       204         1    0.000000   24.343920   21.084250   25.706173
       205       205         1    0.000000   29.627069   23.564750   30.549876
       206       206         1    0.000000   28.053650   21.084250   26.888657
       207       207         1    0.000000   20.706809   23.564750   31.777674
       208       208         1    0.000000   19.133390   21.084250   28.116455
       209       209         1    0.000000   24.416540   23.564750   32.960158
       210       210         1    0.000000   22.843120   21.084250   29.298940
       211       211         1    0.000000   15.496279   23.564750   34.187956
       212       212         1    0.000000   13.922860   21.084250   30.526737
       213       213         1    0.000000   19.206010   23.564750   35.370440
       214       214         1    0.000000   17.632591   21.084250   31.709222
       215       215         1    0.000000   10.285749   23.564750   36.598238
       216       216         1    0.000000    8.712330   21.084250   32.937020
       217       217         1    0.000000   13.995480   23.564750   37.780723
       218       218         1    0.000000   12.422061   21.084250   34.119504
       219       219         1    0.000000    5.075220   23.564750   39.008520
       220       220         1    0.000000    3.501800   21.084250   35.347302
       221       221         1    0.000000    8.784950   23.564750   40.191005
       222       222         1    0.000000    7.211531   21.084250   36.529786
       223       223         1    0.000000    3.574421   23.564750   42.601287
       224       224         1    0.000000    2.001001   21.084250   38.940068
       225       225         1    0.000000   31.127869   28.525750   26.957109
       226       226         1    0.000000   34.837599   28.525750   28.139594
       227       227         1    0.000000   25.917339   28.525750   29.367392
       228       228         1    0.000000   24.343920   26.045250   25.706173
       229       229         1    0.000000   29.627069   28.525750   30.549876
       230       230         1    0.000000   28.053650   26.045250   26.888657
       231       231         1    0.000000   20.706809   28.525750   31.777674
       232       232         1    0.000000   19.133390   26.045250   28.116455
       233       233         1    0.000000   24.416540   28.525750   32.960158
       234       234         1    0.000000   22.843120   26.045250   29.298940
       235       235         1    0.000000   15.496279   28.525750   34.187956
       236       236         1    0.000000   13.922860   26.045250   30.526737
       237       237         1    0.000000   19.206010   28.525750   35.370440
       238       238         1    0.000000   17.632591   26.045250   31.709222
       239       239         1    0.000000   10.285749   28.525750   36.598238
       240       240         1    0.000000    8.712330   26.045250   32.937020
       241       241         1    0.000000   13.995480   28.525750   37.780723
       242       242         1    0.000000   12.422061   26.045250   34.119504
       243       243         1    0.000000    5.075220   28.525750   39.008520
       244       244         1    0.000000    3.501800   26.045250   35.347302
       245       245         1    0.000000    8.784950   28.525750   40.191005
       246       246         1    0.000000    7.211531   26.045250   36.529786
       247       247         1    0.000000    3.574421   28.525750   42.601287
       248       248         1    0.000000    2.001001   26.045250   38.940068
       249       249         1    0.000000   31.127869   33.486750   26.957109
       250       250         1    0.000000   34.837599   33.486750   28.139594
       251       251         1    0.000000   25.917339   33.486750   29.367392
       252       252         1    0.000000   24.343920   31.006250   25.706173
       253       253         1    0.000000   29.627069   33.486750   30.549876
       254       254         1    0.000000   28.053650   31.006250   26.888657
       255       255         1    0.000000   20.706809   33.486750   31.777674
       256       256         1    0.000000   19.133390   31.006250   28.116455
       257       257         1    0.000000   24.416540   33.486750   32.960158
       258       258         1    0.000000   22.843120   31.006250   29.298940
       259       259         1    0.000000   15.496279   33.486750   34.187956
       260       260         1    0.000000   13.922860   31.006250   30.526737
       261       261         1    0.000000   19.206010   33.486750   35.370440
       262       262         1    0.000000   17.632591   31.006250   31.709222
       263       263         1    0.000000   10.285749   33.486750   36.598238
       264       264         1    0.000000    8.712330   31.006250   32.937020
       265       265         1    0.000000   13.995480   33.486750   37.780723
       266       266         1    0.000000   12.422061   31.006250   34.119504
       267       267         1    0.000000    5.075220   33.486750   39.008520
       268       268         1    0.000000    3.501800   31.006250   35.347302
       269       269         1    0.000000    8.784950   33.486750   40.191005
       270       270         1    0.000000    7.211531   31.006250   36.529786
       271       271         1    0.000000    3.574421   33.486750   42.601287
       272       272         1    0.000000    2.001001   31.006250   38.940068
       273       273         1    0.000000   31.127869   38.447750   26.957109
       274       274         1    0.000000   34.837599   38.447750   28.139594
       275       275         1    0.000000   25.917339   38.447750   29.367392
       276       276         1    0.000000   24.343920   35.967250   25.706173
       277       277         1    0.000000   29.627069   38.447750   30.549876
       278       278         1    0.000000   28.053650   35.967250   26.888657
       279       279         1    0.000000   20.706809   38.447750   31.777674
       280       280         1    0.000000   19.133390   35.967250   28.116455
       281       281         1    0.000000   24.416540   38.447750   32.960158
       282       282         1    0.000000   22.843120   35.967250   29.298940
       283       283         1    0.000000   15.496279   38.447750   34.187956
       284       284         1    0.000000   13.922860   35.967250   30.526737
       285       285         1    0.000000   19.206010   38.447750   35.370440
       286       286         1    0.000000   17.632591   35.967250   31.709222
       287       287         1    0.000000   10.285749   38.447750   36.598238
       288       288         1    0.000000    8.712330   35.967250   32.937020
       289       289         1    0.000000   13.995480   38.447750   37.780723
       290       290         1    0.000000   12.422061   35.967250   34.119504
       291       291         1    0.000000    5.075220   38.447750   39.008520
       292       292         1    0.000000    3.501800   35.967250   35.347302
       293       293         1    0.000000    8.784950   38.447750   40.191005
       294       294         1    0.000000    7.211531   35.967250   36.529786
       295       295         1    0.000000    3.574421   38.447750   42.601287
       296       296         1    0.000000    2.001001   35.967250   38.940068
       297       297         1    0.000000   34.472707    3.720750   34.187956
       298       298         1    0.000000   32.899288    1.240250   30.526737
       299       299         1    0.000000   36.609019    1.240250   31.709222
       300       300         1    0.000000   29.262177    3.720750   36.598238
       301       301         1    0.000000   27.688758    1.240250   32.937020
       302       302         1    0.000000   32.971908    3.720750   37.780723
       303       303         1    0.000000   31.398489    1.240250   34.119504
       304       304         1    0.000000   24.051648    3.720750   39.008520
       305       305         1    0.000000   22.478228    1.240250   35.347302
       306       306         1    0.000000   27.761378    3.720750   40.191005
       307       307         1    0.000000   26.187959    1.240250   36.529786
       308       308         1    0.000000   18.841118    3.720750   41.418803
       309       309         1    0.000000   17.267699    1.240250   37.757584
       310       310         1    0.000000   22.550848    3.720750   42.601287
       311       311         1    0.000000   20.977429    1.240250   38.940068
       312       312         1    0.000000   13.630588    3.720750   43.829085
       313       313         1    0.000000   12.057169    1.240250   40.167866
       314       314         1    0.000000   17.340319    3.720750   45.011569
       315       315         1    0.000000   15.766899    1.240250   41.350351
       316       316         1    0.000000    8.420058    3.720750   46.239367
       317       317         1    0.000000    6.846639    1.240250   42.578148
       318       318         1    0.000000   12.129789    3.720750   47.421852
       319       319         1    0.000000   10.556370    1.240250   43.760633
       320       320         1    0.000000    3.209529    3.720750   48.649649
       321       321         1    0.000000    1.636109    1.240250   44.988431
       322       322         1    0.000000    6.919259    3.720750   49.832134
       323       323         1    0.000000    5.345840    1.240250   46.170915
       324       324         1    0.000000    1.708729    3.720750   52.242416
       325       325         1    0.000000    0.135310    1.240250   48.581197
       326       326         1    0.000000   34.472707    8.681750   34.187956
       327       327         1    0.000000   32.899288    6.201250   30.526737
       328       328         1    0.000000   36.609019    6.201250   31.709222
       329       329         1    0.000000   29.262177    8.681750   36.598238
       330       330         1    0.000000   27.688758    6.201250   32.937020
       331       331         1    0.000000   32.971908    8.681750   37.780723
       332       332         1    0.000000   31.398489    6.201250   34.119504
       333       333         1    0.000000   24.051648    8.681750   39.008520
       334       334         1    0.000000   22.478228    6.201250   35.347302
       335       335         1    0.000000   27.761378    8.681750   40.191005
       336       336         1    0.000000   26.187959    6.201250   36.529786
       337       337         1    0.000000   18.841118    8.681750   41.418803
       338       338         1    0.000000   17.267699    6.201250   37.757584
       339       339         1    0.000000   22.550848    8.681750   42.601287
       340       340         1    0.000000   20.977429    6.201250   38.940068
       341       341         1    0.000000   13.630588    8.681750   43.829085
       342       342         1    0.000000   12.057169    6.201250   40.167866
       343       343         1    0.000000   17.340319    8.681750   45.011569
       344       344         1    0.000000   15.766899    6.201250   41.350351
       345       345         1    0.000000    8.420058    8.681750   46.239367
       346       346         1    0.000000    6.846639    6.201250   42.578148
       347       347         1    0.000000   12.129789    8.681750   47.421852
       348       348         1    0.000000   10.556370    6.201250   43.760633
       349       349         1    0.000000    3.209529    8.681750   48.649649
       350       350         1    0.000000    1.636109    6.201250   44.988431
       351       351         1    0.000000    6.919259    8.681750   49.832134
       352       352         1    0.000000    5.345840    6.201250   46.170915
       353       353         1    0.000000    1.708729    8.681750   52.242416
       354       354         1    0.000000    0.135310    6.201250   48.581197
       355       355         1    0.000000   34.472707   13.642750   34.187956
       356       356         1    0.000000   32.899288   11.162250   30.526737
       357       357         1    0.000000   36.609019   11.162250   31.709222
       358       358         1    0.000000   29.262177   13.642750   36.598238
       359       359         1    0.000000   27.688758   11.162250   32.937020
       360       360         1    0.000000   32.971908   13.642750   37.780723
       361       361         1    0.000000   31.398489   11.162250   34.119504
       362       362         1    0.000000   24.051648   13.642750   39.008520
       363       363         1    0.000000   22.478228   11.162250   35.347302
       364       364         1    0.000000   27.761378   13.642750   40.191005
       365       365         1    0.000000   26.187959   11.162250   36.529786
       366       366         1    0.000000   18.841118   13.642750   41.418803
       367       367         1    0.000000   17.267699   11.162250   37.757584
       368       368         1    0.000000   22.550848   13.642750   42.601287
       369       369         1    0.000000   20.977429   11.162250   38.940068
       370       370         1    0.000000   13.630588   13.642750   43.829085
       371       371         1    0.000000   12.057169   11.162250   40.167866
       372       372         1    0.000000   17.340319   13.642750   45.011569
       373       373         1    0.000000   15.766899   11.162250   41.350351