LAMPPS input converted from DLPoly config file

     10073   atoms
      6374   bonds
      4723   angles
      1024   impropers

       5   atom types
       2   bond types
       2   angle types
       1   improper types

    0.000000   39.279953 xlo xhi
    0.000000   39.688000 ylo yhi
    0.000000   80.000000 zlo zhi


  Masses

       1   40.080000    
       2   12.010000    
       3   16.000000    
       4   16.000000    
       5   1.0100000    

   Atoms

         1         1         1    0.000000    2.185584    3.720750   22.182439
         2         2         1    0.000000    2.185584    8.681750   22.182439
         3         3         1    0.000000    2.185584   13.642750   22.182439
         4         4         1    0.000000    2.185584   18.603750   22.182439
         5         5         1    0.000000    2.185584   23.564750   22.182439
         6         6         1    0.000000    2.185584   28.525750   22.182439
         7         7         1    0.000000    2.185584   33.486750   22.182439
         8         8         1    0.000000    2.185584   38.447750   22.182439
         9         9         1    0.000000    8.193108    3.720750   22.973317
        10        10         1    0.000000   12.005572    3.720750   22.182439
        11        11         1    0.000000    4.836782    3.720750   27.631015
        12        12         1    0.000000    1.668721    1.240250   25.213670
        13        13         1    0.000000    8.649246    3.720750   26.840138
        14        14         1    0.000000    5.481185    1.240250   24.422792
        15        15         1    0.000000    1.480456    3.720750   32.288714
        16        16         1    0.000000    5.292920    3.720750   31.497837
        17        17         1    0.000000    2.124859    1.240250   29.080491
        18        18         1    0.000000    1.936594    3.720750   36.155535
        19        19         1    0.000000    8.193108    8.681750   22.973317
        20        20         1    0.000000   12.005572    8.681750   22.182439
        21        21         1    0.000000    4.836782    8.681750   27.631015
        22        22         1    0.000000    1.668721    6.201250   25.213670
        23        23         1    0.000000    8.649246    8.681750   26.840138
        24        24         1    0.000000    5.481185    6.201250   24.422792
        25        25         1    0.000000    1.480456    8.681750   32.288714
        26        26         1    0.000000    5.292920    8.681750   31.497837
        27        27         1    0.000000    2.124859    6.201250   29.080491
        28        28         1    0.000000    1.936594    8.681750   36.155535
        29        29         1    0.000000    8.193108   13.642750   22.973317
        30        30         1    0.000000   12.005572   13.642750   22.182439
        31        31         1    0.000000    4.836782   13.642750   27.631015
        32        32         1    0.000000    1.668721   11.162250   25.213670
        33        33         1    0.000000    8.649246   13.642750   26.840138
        34        34         1    0.000000    5.481185   11.162250   24.422792
        35        35         1    0.000000    1.480456   13.642750   32.288714
        36        36         1    0.000000    5.292920   13.642750   31.497837
        37        37         1    0.000000    2.124859   11.162250   29.080491
        38        38         1    0.000000    1.936594   13.642750   36.155535
        39        39         1    0.000000    8.193108   18.603750   22.973317
        40        40         1    0.000000   12.005572   18.603750   22.182439
        41        41         1    0.000000    4.836782   18.603750   27.631015
        42        42         1    0.000000    1.668721   16.123250   25.213670
        43        43         1    0.000000    8.649246   18.603750   26.840138
        44        44         1    0.000000    5.481185   16.123250   24.422792
        45        45         1    0.000000    1.480456   18.603750   32.288714
        46        46         1    0.000000    5.292920   18.603750   31.497837
        47        47         1    0.000000    2.124859   16.123250   29.080491
        48        48         1    0.000000    1.936594   18.603750   36.155535
        49        49         1    0.000000    8.193108   23.564750   22.973317
        50        50         1    0.000000   12.005572   23.564750   22.182439
        51        51         1    0.000000    4.836782   23.564750   27.631015
        52        52         1    0.000000    1.668721   21.084250   25.213670
        53        53         1    0.000000    8.649246   23.564750   26.840138
        54        54         1    0.000000    5.481185   21.084250   24.422792
        55        55         1    0.000000    1.480456   23.564750   32.288714
        56        56         1    0.000000    5.292920   23.564750   31.497837
        57        57         1    0.000000    2.124859   21.084250   29.080491
        58        58         1    0.000000    1.936594   23.564750   36.155535
        59        59         1    0.000000    8.193108   28.525750   22.973317
        60        60         1    0.000000   12.005572   28.525750   22.182439
        61        61         1    0.000000    4.836782   28.525750   27.631015
        62        62         1    0.000000    1.668721   26.045250   25.213670
        63        63         1    0.000000    8.649246   28.525750   26.840138
        64        64         1    0.000000    5.481185   26.045250   24.422792
        65        65         1    0.000000    1.480456   28.525750   32.288714
        66        66         1    0.000000    5.292920   28.525750   31.497837
        67        67         1    0.000000    2.124859   26.045250   29.080491
        68        68         1    0.000000    1.936594   28.525750   36.155535
        69        69         1    0.000000    8.193108   33.486750   22.973317
        70        70         1    0.000000   12.005572   33.486750   22.182439
        71        71         1    0.000000    4.836782   33.486750   27.631015
        72        72         1    0.000000    1.668721   31.006250   25.213670
        73        73         1    0.000000    8.649246   33.486750   26.840138
        74        74         1    0.000000    5.481185   31.006250   24.422792
        75        75         1    0.000000    1.480456   33.486750   32.288714
        76        76         1    0.000000    5.292920   33.486750   31.497837
        77        77         1    0.000000    2.124859   31.006250   29.080491
        78        78         1    0.000000    1.936594   33.486750   36.155535
        79        79         1    0.000000    8.193108   38.447750   22.973317
        80        80         1    0.000000   12.005572   38.447750   22.182439
        81        81         1    0.000000    4.836782   38.447750   27.631015
        82        82         1    0.000000    1.668721   35.967250   25.213670
        83        83         1    0.000000    8.649246   38.447750   26.840138
        84        84         1    0.000000    5.481185   35.967250   24.422792
        85        85         1    0.000000    1.480456   38.447750   32.288714
        86        86         1    0.000000    5.292920   38.447750   31.497837
        87        87         1    0.000000    2.124859   35.967250   29.080491
        88        88         1    0.000000    1.936594   38.447750   36.155535
        89        89         1    0.000000   18.013096    3.720750   22.973317
        90        90         1    0.000000   21.825560    3.720750   22.182439
        91        91         1    0.000000   14.656770    3.720750   27.631015
        92        92         1    0.000000   11.488709    1.240250   25.213670
        93        93         1    0.000000   18.469234    3.720750   26.840138
        94        94         1    0.000000   15.301173    1.240250   24.422792
        95        95         1    0.000000   11.300444    3.720750   32.288714
        96        96         1    0.000000    8.132383    1.240250   29.871368
        97        97         1    0.000000   15.112909    3.720750   31.497837
        98        98         1    0.000000   11.944848    1.240250   29.080491
        99        99         1    0.000000    7.944118    3.720750   36.946413
       100       100         1    0.000000    4.776057    1.240250   34.529067
       101       101         1    0.000000   11.756583    3.720750   36.155535
       102       102         1    0.000000    8.588522    1.240250   33.738190
       103       103         1    0.000000    4.587793    3.720750   41.604111
       104       104         1    0.000000    1.419732    1.240250   39.186766
       105       105         1    0.000000    8.400257    3.720750   40.813234
       106       106         1    0.000000    5.232196    1.240250   38.395889
       107       107         1    0.000000    1.231467    3.720750   46.261810
       108       108         1    0.000000    5.043931    3.720750   45.470933
       109       109         1    0.000000    1.875870    1.240250   43.053587
       110       110         1    0.000000    1.687605    3.720750   50.128632
       111       111         1    0.000000   18.013096    8.681750   22.973317
       112       112         1    0.000000   21.825560    8.681750   22.182439
       113       113         1    0.000000   14.656770    8.681750   27.631015
       114       114         1    0.000000   11.488709    6.201250   25.213670
       115       115         1    0.000000   18.469234    8.681750   26.840138
       116       116         1    0.000000   15.301173    6.201250   24.422792
       117       117         1    0.000000   11.300444    8.681750   32.288714
       118       118         1    0.000000    8.132383    6.201250   29.871368
       119       119         1    0.000000   15.112909    8.681750   31.497837
       120       120         1    0.000000   11.944848    6.201250   29.080491
       121       121         1    0.000000    7.944118    8.681750   36.946413
       122       122         1    0.000000    4.776057    6.201250   34.529067
       123       123         1    0.000000   11.756583    8.681750   36.155535
       124       124         1    0.000000    8.588522    6.201250   33.738190
       125       125         1    0.000000    4.587793    8.681750   41.604111
       126       126         1    0.000000    1.419732    6.201250   39.186766
       127       127         1    0.000000    8.400257    8.681750   40.813234
       128       128         1    0.000000    5.232196    6.201250   38.395889
       129       129         1    0.000000    1.231467    8.681750   46.261810
       130       130         1    0.000000    5.043931    8.681750   45.470933
       131       131         1    0.000000    1.875870    6.201250   43.053587
       132       132         1    0.000000    1.687605    8.681750   50.128632
       133       133         1    0.000000   18.013096   13.642750   22.973317
       134       134         1    0.000000   21.825560   13.642750   22.182439
       135       135         1    0.000000   14.656770   13.642750   27.631015
       136       136         1    0.000000   11.488709   11.162250   25.213670
       137       137         1    0.000000   18.469234   13.642750   26.840138
       138       138         1    0.000000   15.301173   11.162250   24.422792
       139       139         1    0.000000   11.300444   13.642750   32.288714
       140       140         1    0.000000    8.132383   11.162250   29.871368
       141       141         1    0.000000   15.112909   13.642750   31.497837
       142       142         1    0.000000   11.944848   11.162250   29.080491
       143       143         1    0.000000    7.944118   13.642750   36.946413
       144       144         1    0.000000    4.776057   11.162250   34.529067
       145       145         1    0.000000   11.756583   13.642750   36.155535
       146       146         1    0.000000    8.588522   11.162250   33.738190
       147       147         1    0.000000    4.587793   13.642750   41.604111
       148       148         1    0.000000    1.419732   11.162250   39.186766
       149       149         1    0.000000    8.400257   13.642750   40.813234
       150       150         1    0.000000    5.232196   11.162250   38.395889
       151       151         1    0.000000    1.231467   13.642750   46.261810
       152       152         1    0.000000    5.043931   13.642750   45.470933
       153       153         1    0.000000    1.875870   11.162250   43.053587
       154       154         1    0.000000    1.687605   13.642750   50.128632
       155       155         1    0.000000   18.013096   18.603750   22.973317
       156       156         1    0.000000   21.825560   18.603750   22.182439
       157       157         1    0.000000   14.656770   18.603750   27.631015
       158       158         1    0.000000   11.488709   16.123250   25.213670
       159       159         1    0.000000   18.469234   18.603750   26.840138
       160       160         1    0.000000   15.301173   16.123250   24.422792
       161       161         1    0.000000   11.300444   18.603750   32.288714
       162       162         1    0.000000    8.132383   16.123250   29.871368
       163       163         1    0.000000   15.112909   18.603750   31.497837
       164       164         1    0.000000   11.944848   16.123250   29.080491
       165       165         1    0.000000    7.944118   18.603750   36.946413
       166       166         1    0.000000    4.776057   16.123250   34.529067
       167       167         1    0.000000   11.756583   18.603750   36.155535
       168       168         1    0.000000    8.588522   16.123250   33.738190
       169       169         1    0.000000    4.587793   18.603750   41.604111
       170       170         1    0.000000    1.419732   16.123250   39.186766
       171       171         1    0.000000    8.400257   18.603750   40.813234
       172       172         1    0.000000    5.232196   16.123250   38.395889
       173       173         1    0.000000    1.231467   18.603750   46.261810
       174       174         1    0.000000    5.043931   18.603750   45.470933
       175       175         1    0.000000    1.875870   16.123250   43.053587
       176       176         1    0.000000    1.687605   18.603750   50.128632
       177       177         1    0.000000   18.013096   23.564750   22.973317
       178       178         1    0.000000   21.825560   23.564750   22.182439
       179       179         1    0.000000   14.656770   23.564750   27.631015
       180       180         1    0.000000   11.488709   21.084250   25.213670
       181       181         1    0.000000   18.469234   23.564750   26.840138
       182       182         1    0.000000   15.301173   21.084250   24.422792
       183       183         1    0.000000   11.300444   23.564750   32.288714
       184       184         1    0.000000    8.132383   21.084250   29.871368
       185       185         1    0.000000   15.112909   23.564750   31.497837
       186       186         1    0.000000   11.944848   21.084250   29.080491
       187       187         1    0.000000    7.944118   23.564750   36.946413
       188       188         1    0.000000    4.776057   21.084250   34.529067
       189       189         1    0.000000   11.756583   23.564750   36.155535
       190       190         1    0.000000    8.588522   21.084250   33.738190
       191       191         1    0.000000    4.587793   23.564750   41.604111
       192       192         1    0.000000    1.419732   21.084250   39.186766
       193       193         1    0.000000    8.400257   23.564750   40.813234
       194       194         1    0.000000    5.232196   21.084250   38.395889
       195       195         1    0.000000    1.231467   23.564750   46.261810
       196       196         1    0.000000    5.043931   23.564750   45.470933
       197       197         1    0.000000    1.875870   21.084250   43.053587
       198       198         1    0.000000    1.687605   23.564750   50.128632
       199       199         1    0.000000   18.013096   28.525750   22.973317
       200       200         1    0.000000   21.825560   28.525750   22.182439
       201       201         1    0.000000   14.656770   28.525750   27.631015
       202       202         1    0.000000   11.488709   26.045250   25.213670
       203       203         1    0.000000   18.469234   28.525750   26.840138
       204       204         1    0.000000   15.301173   26.045250   24.422792
       205       205         1    0.000000   11.300444   28.525750   32.288714
       206       206         1    0.000000    8.132383   26.045250   29.871368
       207       207         1    0.000000   15.112909   28.525750   31.497837
       208       208         1    0.000000   11.944848   26.045250   29.080491
       209       209         1    0.000000    7.944118   28.525750   36.946413
       210       210         1    0.000000    4.776057   26.045250   34.529067
       211       211         1    0.000000   11.756583   28.525750   36.155535
       212       212         1    0.000000    8.588522   26.045250   33.738190
       213       213         1    0.000000    4.587793   28.525750   41.604111
       214       214         1    0.000000    1.419732   26.045250   39.186766
       215       215         1    0.000000    8.400257   28.525750   40.813234
       216       216         1    0.000000    5.232196   26.045250   38.395889
       217       217         1    0.000000    1.231467   28.525750   46.261810
       218       218         1    0.000000    5.043931   28.525750   45.470933
       219       219         1    0.000000    1.875870   26.045250   43.053587
       220       220         1    0.000000    1.687605   28.525750   50.128632
       221       221         1    0.000000   18.013096   33.486750   22.973317
       222       222         1    0.000000   21.825560   33.486750   22.182439
       223       223         1    0.000000   14.656770   33.486750   27.631015
       224       224         1    0.000000   11.488709   31.006250   25.213670
       225       225         1    0.000000   18.469234   33.486750   26.840138
       226       226         1    0.000000   15.301173   31.006250   24.422792
       227       227         1    0.000000   11.300444   33.486750   32.288714
       228       228         1    0.000000    8.132383   31.006250   29.871368
       229       229         1    0.000000   15.112909   33.486750   31.497837
       230       230         1    0.000000   11.944848   31.006250   29.080491
       231       231         1    0.000000    7.944118   33.486750   36.946413
       232       232         1    0.000000    4.776057   31.006250   34.529067
       233       233         1    0.000000   11.756583   33.486750   36.155535
       234       234         1    0.000000    8.588522   31.006250   33.738190
       235       235         1    0.000000    4.587793   33.486750   41.604111
       236       236         1    0.000000    1.419732   31.006250   39.186766
       237       237         1    0.000000    8.400257   33.486750   40.813234
       238       238         1    0.000000    5.232196   31.006250   38.395889
       239       239         1    0.000000    1.231467   33.486750   46.261810
       240       240         1    0.000000    5.043931   33.486750   45.470933
       241       241         1    0.000000    1.875870   31.006250   43.053587
       242       242         1    0.000000    1.687605   33.486750   50.128632
       243       243         1    0.000000   18.013096   38.447750   22.973317
       244       244         1    0.000000   21.825560   38.447750   22.182439
       245       245         1    0.000000   14.656770   38.447750   27.631015
       246       246         1    0.000000   11.488709   35.967250   25.213670
       247       247         1    0.000000   18.469234   38.447750   26.840138
       248       248         1    0.000000   15.301173   35.967250   24.422792
       249       249         1    0.000000   11.300444   38.447750   32.288714
       250       250         1    0.000000    8.132383   35.967250   29.871368
       251       251         1    0.000000   15.112909   38.447750   31.497837
       252       252         1    0.000000   11.944848   35.967250   29.080491
       253       253         1    0.000000    7.944118   38.447750   36.946413
       254       254         1    0.000000    4.776057   35.967250   34.529067
       255       255         1    0.000000   11.756583   38.447750   36.155535
       256       256         1    0.000000    8.588522   35.967250   33.738190
       257       257         1    0.000000    4.587793   38.447750   41.604111
       258       258         1    0.000000    1.419732   35.967250   39.186766
       259       259         1    0.000000    8.400257   38.447750   40.813234
       260       260         1    0.000000    5.232196   35.967250   38.395889
       261       261         1    0.000000    1.231467   38.447750   46.261810
       262       262         1    0.000000    5.043931   38.447750   45.470933
       263       263         1    0.000000    1.875870   35.967250   43.053587
       264       264         1    0.000000    1.687605   38.447750   50.128632
       265       265         1    0.000000   27.833084    3.720750   22.973317
       266       266         1    0.000000   31.645549    3.720750   22.182439
       267       267         1    0.000000   24.476758    3.720750   27.631015
       268       268         1    0.000000   21.308697    1.240250   25.213670
       269       269         1    0.000000   28.289223    3.720750   26.840138
       270       270         1    0.000000   25.121162    1.240250   24.422792
       271       271         1    0.000000   21.120433    3.720750   32.288714
       272       272         1    0.000000   17.952372    1.240250   29.871368
       273       273         1    0.000000   24.932897    3.720750   31.497837
       274       274         1    0.000000   21.764836    1.240250   29.080491
       275       275         1    0.000000   17.764107    3.720750   36.946413
       276       276         1    0.000000   14.596046    1.240250   34.529067
       277       277         1    0.000000   21.576571    3.720750   36.155535
       278       278         1    0.000000   18.408510    1.240250   33.738190
       279       279         1    0.000000   14.407781    3.720750   41.604111
       280       280         1    0.000000   11.239720    1.240250   39.186766
       281       281         1    0.000000   18.220245    3.720750   40.813234
       282       282         1    0.000000   15.052184    1.240250   38.395889
       283       283         1    0.000000   11.051455    3.720750   46.261810
       284       284         1    0.000000    7.883394    1.240250   43.844465
       285       285         1    0.000000   14.863919    3.720750   45.470933
       286       286         1    0.000000   11.695858    1.240250   43.053587
       287       287         1    0.000000    7.695129    3.720750   50.919509
       288       288         1    0.000000    4.527068    1.240250   48.502163
       289       289         1    0.000000   11.507593    3.720750   50.128632
       290       290         1    0.000000    8.339532    1.240250   47.711286
       291       291         1    0.000000    4.338803    3.720750   55.577208
       292       292         1    0.000000    1.170742    1.240250   53.159862
       293       293         1    0.000000    8.151267    3.720750   54.786330
       294       294         1    0.000000    4.983206    1.240250   52.368985
       295       295         1    0.000000    1.626880    1.240250   57.026683
       296       296         1    0.000000   27.833084    8.681750   22.973317
       297       297         1    0.000000   31.645549    8.681750   22.182439
       298       298         1    0.000000   24.476758    8.681750   27.631015
       299       299         1    0.000000   21.308697    6.201250   25.213670
       300       300         1    0.000000   28.289223    8.681750   26.840138
       301       301         1    0.000000   25.121162    6.201250   24.422792
       302       302         1    0.000000   21.120433    8.681750   32.288714
       303       303         1    0.000000   17.952372    6.201250   29.871368
       304       304         1    0.000000   24.932897    8.681750   31.497837
       305       305         1    0.000000   21.764836    6.201250   29.080491
       306       306         1    0.000000   17.764107    8.681750   36.946413
       307       307         1    0.000000   14.596046    6.201250   34.529067
       308       308         1    0.000000   21.576571    8.681750   36.155535
       309       309         1    0.000000   18.408510    6.201250   33.738190
       310       310         1    0.000000   14.407781    8.681750   41.604111
       311       311         1    0.000000   11.239720    6.201250   39.186766
       312       312         1    0.000000   18.220245    8.681750   40.813234
       313       313         1    0.000000   15.052184    6.201250   38.395889
       314       314         1    0.000000   11.051455    8.681750   46.261810
       315       315         1    0.000000    7.883394    6.201250   43.844465
       316       316         1    0.000000   14.863919    8.681750   45.470933
       317       317         1    0.000000   11.695858    6.201250   43.053587
       318       318         1    0.000000    7.695129    8.681750   50.919509
       319       319         1    0.000000    4.527068    6.201250   48.502163
       320       320         1    0.000000   11.507593    8.681750   50.128632
       321       321         1    0.000000    8.339532    6.201250   47.711286
       322       322         1    0.000000    4.338803    8.681750   55.577208
       323       323         1    0.000000    1.170742    6.201250   53.159862
       324       324         1    0.000000    8.151267    8.681750   54.786330
       325       325         1    0.000000    4.983206    6.201250   52.368985
       326       326         1    0.000000    1.626880    6.201250   57.026683
       327       327         1    0.000000   27.833084   13.642750   22.973317
       328       328         1    0.000000   31.645549   13.642750   22.182439
       329       329         1    0.000000   24.476758   13.642750   27.631015
       330       330         1    0.000000   21.308697   11.162250   25.213670
       331       331         1    0.000000   28.289223   13.642750   26.840138
       332       332         1    0.000000   25.121162   11.162250   24.422792
       333       333         1    0.000000   21.120433   13.642750   32.288714
       334       334         1    0.000000   17.952372   11.162250   29.871368
       335       335         1    0.000000   24.932897   13.642750   31.497837
       336       336         1    0.000000   21.764836   11.162250   29.080491
       337       337         1    0.000000   17.764107   13.642750   36.946413
       338       338         1    0.000000   14.596046   11.162250   34.529067
       339       339         1    0.000000   21.576571   13.642750   36.155535
       340       340         1    0.000000   18.408510   11.162250   33.738190
       341       341         1    0.000000   14.407781   13.642750   41.604111
       342       342         1    0.000000   11.239720   11.162250   39.186766
       343       343         1    0.000000   18.220245   13.642750   40.813234
       344       344         1    0.000000   15.052184   11.162250   38.395889
       345       345         1    0.000000   11.051455   13.642750   46.261810
       346       346         1    0.000000    7.883394   11.162250   43.844465
       347       347         1    0.000000   14.863919   13.642750   45.470933
       348       348         1    0.000000   11.695858   11.162250   43.053587
       349       349         1    0.000000    7.695129   13.642750   50.919509
       350       350         1    0.000000    4.527068   11.162250   48.502163
       351       351         1    0.000000   11.507593   13.642750   50.128632
       352       352         1    0.000000    8.339532   11.162250   47.711286
       353       353         1    0.000000    4.338803   13.642750   55.577208
       354       354         1    0.000000    1.170742   11.162250   53.159862
       355       355         1    0.000000    8.151267   13.642750   54.786330
       356       356         1    0.000000    4.983206   11.162250   52.368985
       357       357         1    0.000000    1.626880   11.162250   57.026683
       358       358         1    0.000000   27.833084   18.603750   22.973317
       359       359         1    0.000000   31.645549   18.603750   22.182439
       360       360         1    0.000000   24.476758   18.603750   27.631015
       361       361         1    0.000000   21.308697   16.123250   25.213670
       362       362         1    0.000000   28.289223   18.603750   26.840138
       363       363         1    0.000000   25.121162   16.123250   24.422792
       364       364         1    0.000000   21.120433   18.603750   32.288714
       365       365         1    0.000000   17.952372   16.123250   29.871368
       366       366         1    0.000000   24.932897   18.603750   31.497837
       367       367         1    0.000000   21.764836   16.123250   29.080491
       368       368         1    0.000000   17.764107   18.603750   36.946413
       369       369         1    0.000000   14.596046   16.123250   34.529067
       370       370         1    0.000000   21.576571   18.603750   36.155535
       371       371         1    0.000000   18.408510   16.123250   33.738190
       372       372         1    0.000000   14.407781   18.603750   41.604111
       373       373         1    0.000000   11.239720   16.123250   39.186766