LAMPPS input converted from DLPoly config file

     11438   atoms
      7220   bonds
      5434   angles
      1216   impropers

       5   atom types
       2   bond types
       2   angle types
       1   improper types

    0.000000   39.279953 xlo xhi
    0.000000   39.688000 ylo yhi
    0.000000   90.000000 zlo zhi


  Masses

       1   40.080000    
       2   12.010000    
       3   16.000000    
       4   16.000000    
       5   1.0100000    

   Atoms

         1         1         1    0.000000    1.729445    3.720750   23.315618
         2         2         1    0.000000    2.185584    3.720750   27.182439
         3         3         1    0.000000    1.729445    8.681750   23.315618
         4         4         1    0.000000    2.185584    8.681750   27.182439
         5         5         1    0.000000    1.729445   13.642750   23.315618
         6         6         1    0.000000    2.185584   13.642750   27.182439
         7         7         1    0.000000    1.729445   18.603750   23.315618
         8         8         1    0.000000    2.185584   18.603750   27.182439
         9         9         1    0.000000    1.729445   23.564750   23.315618
        10        10         1    0.000000    2.185584   23.564750   27.182439
        11        11         1    0.000000    1.729445   28.525750   23.315618
        12        12         1    0.000000    2.185584   28.525750   27.182439
        13        13         1    0.000000    1.729445   33.486750   23.315618
        14        14         1    0.000000    2.185584   33.486750   27.182439
        15        15         1    0.000000    1.729445   38.447750   23.315618
        16        16         1    0.000000    2.185584   38.447750   27.182439
        17        17         1    0.000000   11.549434    3.720750   23.315618
        18        18         1    0.000000    8.193108    3.720750   27.973317
        19        19         1    0.000000    5.025047    1.240250   25.555971
        20        20         1    0.000000   12.005572    3.720750   27.182439
        21        21         1    0.000000    8.837511    1.240250   24.765094
        22        22         1    0.000000    4.836782    3.720750   32.631015
        23        23         1    0.000000    1.668721    1.240250   30.213670
        24        24         1    0.000000    8.649246    3.720750   31.840138
        25        25         1    0.000000    5.481185    1.240250   29.422792
        26        26         1    0.000000    1.480456    3.720750   37.288714
        27        27         1    0.000000    5.292920    3.720750   36.497837
        28        28         1    0.000000    2.124859    1.240250   34.080491
        29        29         1    0.000000    1.936594    3.720750   41.155535
        30        30         1    0.000000   11.549434    8.681750   23.315618
        31        31         1    0.000000    8.193108    8.681750   27.973317
        32        32         1    0.000000    5.025047    6.201250   25.555971
        33        33         1    0.000000   12.005572    8.681750   27.182439
        34        34         1    0.000000    8.837511    6.201250   24.765094
        35        35         1    0.000000    4.836782    8.681750   32.631015
        36        36         1    0.000000    1.668721    6.201250   30.213670
        37        37         1    0.000000    8.649246    8.681750   31.840138
        38        38         1    0.000000    5.481185    6.201250   29.422792
        39        39         1    0.000000    1.480456    8.681750   37.288714
        40        40         1    0.000000    5.292920    8.681750   36.497837
        41        41         1    0.000000    2.124859    6.201250   34.080491
        42        42         1    0.000000    1.936594    8.681750   41.155535
        43        43         1    0.000000   11.549434   13.642750   23.315618
        44        44         1    0.000000    8.193108   13.642750   27.973317
        45        45         1    0.000000    5.025047   11.162250   25.555971
        46        46         1    0.000000   12.005572   13.642750   27.182439
        47        47         1    0.000000    8.837511   11.162250   24.765094
        48        48         1    0.000000    4.836782   13.642750   32.631015
        49        49         1    0.000000    1.668721   11.162250   30.213670
        50        50         1    0.000000    8.649246   13.642750   31.840138
        51        51         1    0.000000    5.481185   11.162250   29.422792
        52        52         1    0.000000    1.480456   13.642750   37.288714
        53        53         1    0.000000    5.292920   13.642750   36.497837
        54        54         1    0.000000    2.124859   11.162250   34.080491
        55        55         1    0.000000    1.936594   13.642750   41.155535
        56        56         1    0.000000   11.549434   18.603750   23.315618
        57        57         1    0.000000    8.193108   18.603750   27.973317
        58        58         1    0.000000    5.025047   16.123250   25.555971
        59        59         1    0.000000   12.005572   18.603750   27.182439
        60        60         1    0.000000    8.837511   16.123250   24.765094
        61        61         1    0.000000    4.836782   18.603750   32.631015
        62        62         1    0.000000    1.668721   16.123250   30.213670
        63        63         1    0.000000    8.649246   18.603750   31.840138
        64        64         1    0.000000    5.481185   16.123250   29.422792
        65        65         1    0.000000    1.480456   18.603750   37.288714
        66        66         1    0.000000    5.292920   18.603750   36.497837
        67        67         1    0.000000    2.124859   16.123250   34.080491
        68        68         1    0.000000    1.936594   18.603750   41.155535
        69        69         1    0.000000   11.549434   23.564750   23.315618
        70        70         1    0.000000    8.193108   23.564750   27.973317
        71        71         1    0.000000    5.025047   21.084250   25.555971
        72        72         1    0.000000   12.005572   23.564750   27.182439
        73        73         1    0.000000    8.837511   21.084250   24.765094
        74        74         1    0.000000    4.836782   23.564750   32.631015
        75        75         1    0.000000    1.668721   21.084250   30.213670
        76        76         1    0.000000    8.649246   23.564750   31.840138
        77        77         1    0.000000    5.481185   21.084250   29.422792
        78        78         1    0.000000    1.480456   23.564750   37.288714
        79        79         1    0.000000    5.292920   23.564750   36.497837
        80        80         1    0.000000    2.124859   21.084250   34.080491
        81        81         1    0.000000    1.936594   23.564750   41.155535
        82        82         1    0.000000   11.549434   28.525750   23.315618
        83        83         1    0.000000    8.193108   28.525750   27.973317
        84        84         1    0.000000    5.025047   26.045250   25.555971
        85        85         1    0.000000   12.005572   28.525750   27.182439
        86        86         1    0.000000    8.837511   26.045250   24.765094
        87        87         1    0.000000    4.836782   28.525750   32.631015
        88        88         1    0.000000    1.668721   26.045250   30.213670
        89        89         1    0.000000    8.649246   28.525750   31.840138
        90        90         1    0.000000    5.481185   26.045250   29.422792
        91        91         1    0.000000    1.480456   28.525750   37.288714
        92        92         1    0.000000    5.292920   28.525750   36.497837
        93        93         1    0.000000    2.124859   26.045250   34.080491
        94        94         1    0.000000    1.936594   28.525750   41.155535
        95        95         1    0.000000   11.549434   33.486750   23.315618
        96        96         1    0.000000    8.193108   33.486750   27.973317
        97        97         1    0.000000    5.025047   31.006250   25.555971
        98        98         1    0.000000   12.005572   33.486750   27.182439
        99        99         1    0.000000    8.837511   31.006250   24.765094
       100       100         1    0.000000    4.836782   33.486750   32.631015
       101       101         1    0.000000    1.668721   31.006250   30.213670
       102       102         1    0.000000    8.649246   33.486750   31.840138
       103       103         1    0.000000    5.481185   31.006250   29.422792
       104       104         1    0.000000    1.480456   33.486750   37.288714
       105       105         1    0.000000    5.292920   33.486750   36.497837
       106       106         1    0.000000    2.124859   31.006250   34.080491
       107       107         1    0.000000    1.936594   33.486750   41.155535
       108       108         1    0.000000   11.549434   38.447750   23.315618
       109       109         1    0.000000    8.193108   38.447750   27.973317
       110       110         1    0.000000    5.025047   35.967250   25.555971
       111       111         1    0.000000   12.005572   38.447750   27.182439
       112       112         1    0.000000    8.837511   35.967250   24.765094
       113       113         1    0.000000    4.836782   38.447750   32.631015
       114       114         1    0.000000    1.668721   35.967250   30.213670
       115       115         1    0.000000    8.649246   38.447750   31.840138
       116       116         1    0.000000    5.481185   35.967250   29.422792
       117       117         1    0.000000    1.480456   38.447750   37.288714
       118       118         1    0.000000    5.292920   38.447750   36.497837
       119       119         1    0.000000    2.124859   35.967250   34.080491
       120       120         1    0.000000    1.936594   38.447750   41.155535
       121       121         1    0.000000   21.369422    3.720750   23.315618
       122       122         1    0.000000   18.013096    3.720750   27.973317
       123       123         1    0.000000   14.845035    1.240250   25.555971
       124       124         1    0.000000   21.825560    3.720750   27.182439
       125       125         1    0.000000   18.657499    1.240250   24.765094
       126       126         1    0.000000   14.656770    3.720750   32.631015
       127       127         1    0.000000   11.488709    1.240250   30.213670
       128       128         1    0.000000   18.469234    3.720750   31.840138
       129       129         1    0.000000   15.301173    1.240250   29.422792
       130       130         1    0.000000   11.300444    3.720750   37.288714
       131       131         1    0.000000    8.132383    1.240250   34.871368
       132       132         1    0.000000   15.112909    3.720750   36.497837
       133       133         1    0.000000   11.944848    1.240250   34.080491
       134       134         1    0.000000    7.944118    3.720750   41.946413
       135       135         1    0.000000    4.776057    1.240250   39.529067
       136       136         1    0.000000   11.756583    3.720750   41.155535
       137       137         1    0.000000    8.588522    1.240250   38.738190
       138       138         1    0.000000    4.587793    3.720750   46.604111
       139       139         1    0.000000    1.419732    1.240250   44.186766
       140       140         1    0.000000    8.400257    3.720750   45.813234
       141       141         1    0.000000    5.232196    1.240250   43.395889
       142       142         1    0.000000    1.231467    3.720750   51.261810
       143       143         1    0.000000    5.043931    3.720750   50.470933
       144       144         1    0.000000    1.875870    1.240250   48.053587
       145       145         1    0.000000    1.687605    3.720750   55.128632
       146       146         1    0.000000   21.369422    8.681750   23.315618
       147       147         1    0.000000   18.013096    8.681750   27.973317
       148       148         1    0.000000   14.845035    6.201250   25.555971
       149       149         1    0.000000   21.825560    8.681750   27.182439
       150       150         1    0.000000   18.657499    6.201250   24.765094
       151       151         1    0.000000   14.656770    8.681750   32.631015
       152       152         1    0.000000   11.488709    6.201250   30.213670
       153       153         1    0.000000   18.469234    8.681750   31.840138
       154       154         1    0.000000   15.301173    6.201250   29.422792
       155       155         1    0.000000   11.300444    8.681750   37.288714
       156       156         1    0.000000    8.132383    6.201250   34.871368
       157       157         1    0.000000   15.112909    8.681750   36.497837
       158       158         1    0.000000   11.944848    6.201250   34.080491
       159       159         1    0.000000    7.944118    8.681750   41.946413
       160       160         1    0.000000    4.776057    6.201250   39.529067
       161       161         1    0.000000   11.756583    8.681750   41.155535
       162       162         1    0.000000    8.588522    6.201250   38.738190
       163       163         1    0.000000    4.587793    8.681750   46.604111
       164       164         1    0.000000    1.419732    6.201250   44.186766
       165       165         1    0.000000    8.400257    8.681750   45.813234
       166       166         1    0.000000    5.232196    6.201250   43.395889
       167       167         1    0.000000    1.231467    8.681750   51.261810
       168       168         1    0.000000    5.043931    8.681750   50.470933
       169       169         1    0.000000    1.875870    6.201250   48.053587
       170       170         1    0.000000    1.687605    8.681750   55.128632
       171       171         1    0.000000   21.369422   13.642750   23.315618
       172       172         1    0.000000   18.013096   13.642750   27.973317
       173       173         1    0.000000   14.845035   11.162250   25.555971
       174       174         1    0.000000   21.825560   13.642750   27.182439
       175       175         1    0.000000   18.657499   11.162250   24.765094
       176       176         1    0.000000   14.656770   13.642750   32.631015
       177       177         1    0.000000   11.488709   11.162250   30.213670
       178       178         1    0.000000   18.469234   13.642750   31.840138
       179       179         1    0.000000   15.301173   11.162250   29.422792
       180       180         1    0.000000   11.300444   13.642750   37.288714
       181       181         1    0.000000    8.132383   11.162250   34.871368
       182       182         1    0.000000   15.112909   13.642750   36.497837
       183       183         1    0.000000   11.944848   11.162250   34.080491
       184       184         1    0.000000    7.944118   13.642750   41.946413
       185       185         1    0.000000    4.776057   11.162250   39.529067
       186       186         1    0.000000   11.756583   13.642750   41.155535
       187       187         1    0.000000    8.588522   11.162250   38.738190
       188       188         1    0.000000    4.587793   13.642750   46.604111
       189       189         1    0.000000    1.419732   11.162250   44.186766
       190       190         1    0.000000    8.400257   13.642750   45.813234
       191       191         1    0.000000    5.232196   11.162250   43.395889
       192       192         1    0.000000    1.231467   13.642750   51.261810
       193       193         1    0.000000    5.043931   13.642750   50.470933
       194       194         1    0.000000    1.875870   11.162250   48.053587
       195       195         1    0.000000    1.687605   13.642750   55.128632
       196       196         1    0.000000   21.369422   18.603750   23.315618
       197       197         1    0.000000   18.013096   18.603750   27.973317
       198       198         1    0.000000   14.845035   16.123250   25.555971
       199       199         1    0.000000   21.825560   18.603750   27.182439
       200       200         1    0.000000   18.657499   16.123250   24.765094
       201       201         1    0.000000   14.656770   18.603750   32.631015
       202       202         1    0.000000   11.488709   16.123250   30.213670
       203       203         1    0.000000   18.469234   18.603750   31.840138
       204       204         1    0.000000   15.301173   16.123250   29.422792
       205       205         1    0.000000   11.300444   18.603750   37.288714
       206       206         1    0.000000    8.132383   16.123250   34.871368
       207       207         1    0.000000   15.112909   18.603750   36.497837
       208       208         1    0.000000   11.944848   16.123250   34.080491
       209       209         1    0.000000    7.944118   18.603750   41.946413
       210       210         1    0.000000    4.776057   16.123250   39.529067
       211       211         1    0.000000   11.756583   18.603750   41.155535
       212       212         1    0.000000    8.588522   16.123250   38.738190
       213       213         1    0.000000    4.587793   18.603750   46.604111
       214       214         1    0.000000    1.419732   16.123250   44.186766
       215       215         1    0.000000    8.400257   18.603750   45.813234
       216       216         1    0.000000    5.232196   16.123250   43.395889
       217       217         1    0.000000    1.231467   18.603750   51.261810
       218       218         1    0.000000    5.043931   18.603750   50.470933
       219       219         1    0.000000    1.875870   16.123250   48.053587
       220       220         1    0.000000    1.687605   18.603750   55.128632
       221       221         1    0.000000   21.369422   23.564750   23.315618
       222       222         1    0.000000   18.013096   23.564750   27.973317
       223       223         1    0.000000   14.845035   21.084250   25.555971
       224       224         1    0.000000   21.825560   23.564750   27.182439
       225       225         1    0.000000   18.657499   21.084250   24.765094
       226       226         1    0.000000   14.656770   23.564750   32.631015
       227       227         1    0.000000   11.488709   21.084250   30.213670
       228       228         1    0.000000   18.469234   23.564750   31.840138
       229       229         1    0.000000   15.301173   21.084250   29.422792
       230       230         1    0.000000   11.300444   23.564750   37.288714
       231       231         1    0.000000    8.132383   21.084250   34.871368
       232       232         1    0.000000   15.112909   23.564750   36.497837
       233       233         1    0.000000   11.944848   21.084250   34.080491
       234       234         1    0.000000    7.944118   23.564750   41.946413
       235       235         1    0.000000    4.776057   21.084250   39.529067
       236       236         1    0.000000   11.756583   23.564750   41.155535
       237       237         1    0.000000    8.588522   21.084250   38.738190
       238       238         1    0.000000    4.587793   23.564750   46.604111
       239       239         1    0.000000    1.419732   21.084250   44.186766
       240       240         1    0.000000    8.400257   23.564750   45.813234
       241       241         1    0.000000    5.232196   21.084250   43.395889
       242       242         1    0.000000    1.231467   23.564750   51.261810
       243       243         1    0.000000    5.043931   23.564750   50.470933
       244       244         1    0.000000    1.875870   21.084250   48.053587
       245       245         1    0.000000    1.687605   23.564750   55.128632
       246       246         1    0.000000   21.369422   28.525750   23.315618
       247       247         1    0.000000   18.013096   28.525750   27.973317
       248       248         1    0.000000   14.845035   26.045250   25.555971
       249       249         1    0.000000   21.825560   28.525750   27.182439
       250       250         1    0.000000   18.657499   26.045250   24.765094
       251       251         1    0.000000   14.656770   28.525750   32.631015
       252       252         1    0.000000   11.488709   26.045250   30.213670
       253       253         1    0.000000   18.469234   28.525750   31.840138
       254       254         1    0.000000   15.301173   26.045250   29.422792
       255       255         1    0.000000   11.300444   28.525750   37.288714
       256       256         1    0.000000    8.132383   26.045250   34.871368
       257       257         1    0.000000   15.112909   28.525750   36.497837
       258       258         1    0.000000   11.944848   26.045250   34.080491
       259       259         1    0.000000    7.944118   28.525750   41.946413
       260       260         1    0.000000    4.776057   26.045250   39.529067
       261       261         1    0.000000   11.756583   28.525750   41.155535
       262       262         1    0.000000    8.588522   26.045250   38.738190
       263       263         1    0.000000    4.587793   28.525750   46.604111
       264       264         1    0.000000    1.419732   26.045250   44.186766
       265       265         1    0.000000    8.400257   28.525750   45.813234
       266       266         1    0.000000    5.232196   26.045250   43.395889
       267       267         1    0.000000    1.231467   28.525750   51.261810
       268       268         1    0.000000    5.043931   28.525750   50.470933
       269       269         1    0.000000    1.875870   26.045250   48.053587
       270       270         1    0.000000    1.687605   28.525750   55.128632
       271       271         1    0.000000   21.369422   33.486750   23.315618
       272       272         1    0.000000   18.013096   33.486750   27.973317
       273       273         1    0.000000   14.845035   31.006250   25.555971
       274       274         1    0.000000   21.825560   33.486750   27.182439
       275       275         1    0.000000   18.657499   31.006250   24.765094
       276       276         1    0.000000   14.656770   33.486750   32.631015
       277       277         1    0.000000   11.488709   31.006250   30.213670
       278       278         1    0.000000   18.469234   33.486750   31.840138
       279       279         1    0.000000   15.301173   31.006250   29.422792
       280       280         1    0.000000   11.300444   33.486750   37.288714
       281       281         1    0.000000    8.132383   31.006250   34.871368
       282       282         1    0.000000   15.112909   33.486750   36.497837
       283       283         1    0.000000   11.944848   31.006250   34.080491
       284       284         1    0.000000    7.944118   33.486750   41.946413
       285       285         1    0.000000    4.776057   31.006250   39.529067
       286       286         1    0.000000   11.756583   33.486750   41.155535
       287       287         1    0.000000    8.588522   31.006250   38.738190
       288       288         1    0.000000    4.587793   33.486750   46.604111
       289       289         1    0.000000    1.419732   31.006250   44.186766
       290       290         1    0.000000    8.400257   33.486750   45.813234
       291       291         1    0.000000    5.232196   31.006250   43.395889
       292       292         1    0.000000    1.231467   33.486750   51.261810
       293       293         1    0.000000    5.043931   33.486750   50.470933
       294       294         1    0.000000    1.875870   31.006250   48.053587
       295       295         1    0.000000    1.687605   33.486750   55.128632
       296       296         1    0.000000   21.369422   38.447750   23.315618
       297       297         1    0.000000   18.013096   38.447750   27.973317
       298       298         1    0.000000   14.845035   35.967250   25.555971
       299       299         1    0.000000   21.825560   38.447750   27.182439
       300       300         1    0.000000   18.657499   35.967250   24.765094
       301       301         1    0.000000   14.656770   38.447750   32.631015
       302       302         1    0.000000   11.488709   35.967250   30.213670
       303       303         1    0.000000   18.469234   38.447750   31.840138
       304       304         1    0.000000   15.301173   35.967250   29.422792
       305       305         1    0.000000   11.300444   38.447750   37.288714
       306       306         1    0.000000    8.132383   35.967250   34.871368
       307       307         1    0.000000   15.112909   38.447750   36.497837
       308       308         1    0.000000   11.944848   35.967250   34.080491
       309       309         1    0.000000    7.944118   38.447750   41.946413
       310       310         1    0.000000    4.776057   35.967250   39.529067
       311       311         1    0.000000   11.756583   38.447750   41.155535
       312       312         1    0.000000    8.588522   35.967250   38.738190
       313       313         1    0.000000    4.587793   38.447750   46.604111
       314       314         1    0.000000    1.419732   35.967250   44.186766
       315       315         1    0.000000    8.400257   38.447750   45.813234
       316       316         1    0.000000    5.232196   35.967250   43.395889
       317       317         1    0.000000    1.231467   38.447750   51.261810
       318       318         1    0.000000    5.043931   38.447750   50.470933
       319       319         1    0.000000    1.875870   35.967250   48.053587
       320       320         1    0.000000    1.687605   38.447750   55.128632
       321       321         1    0.000000   31.189410    3.720750   23.315618
       322       322         1    0.000000   27.833084    3.720750   27.973317
       323       323         1    0.000000   24.665023    1.240250   25.555971
       324       324         1    0.000000   31.645549    3.720750   27.182439
       325       325         1    0.000000   28.477488    1.240250   24.765094
       326       326         1    0.000000   24.476758    3.720750   32.631015
       327       327         1    0.000000   21.308697    1.240250   30.213670
       328       328         1    0.000000   28.289223    3.720750   31.840138
       329       329         1    0.000000   25.121162    1.240250   29.422792
       330       330         1    0.000000   21.120433    3.720750   37.288714
       331       331         1    0.000000   17.952372    1.240250   34.871368
       332       332         1    0.000000   24.932897    3.720750   36.497837
       333       333         1    0.000000   21.764836    1.240250   34.080491
       334       334         1    0.000000   17.764107    3.720750   41.946413
       335       335         1    0.000000   14.596046    1.240250   39.529067
       336       336         1    0.000000   21.576571    3.720750   41.155535
       337       337         1    0.000000   18.408510    1.240250   38.738190
       338       338         1    0.000000   14.407781    3.720750   46.604111
       339       339         1    0.000000   11.239720    1.240250   44.186766
       340       340         1    0.000000   18.220245    3.720750   45.813234
       341       341         1    0.000000   15.052184    1.240250   43.395889
       342       342         1    0.000000   11.051455    3.720750   51.261810
       343       343         1    0.000000    7.883394    1.240250   48.844465
       344       344         1    0.000000   14.863919    3.720750   50.470933
       345       345         1    0.000000   11.695858    1.240250   48.053587
       346       346         1    0.000000    7.695129    3.720750   55.919509
       347       347         1    0.000000    4.527068    1.240250   53.502163
       348       348         1    0.000000   11.507593    3.720750   55.128632
       349       349         1    0.000000    8.339532    1.240250   52.711286
       350       350         1    0.000000    4.338803    3.720750   60.577208
       351       351         1    0.000000    1.170742    1.240250   58.159862
       352       352         1    0.000000    8.151267    3.720750   59.786330
       353       353         1    0.000000    4.983206    1.240250   57.368985
       354       354         1    0.000000    0.982477    3.720750   65.234906
       355       355         1    0.000000    4.794941    3.720750   64.444029
       356       356         1    0.000000    1.626880    1.240250   62.026683
       357       357         1    0.000000   31.189410    8.681750   23.315618
       358       358         1    0.000000   27.833084    8.681750   27.973317
       359       359         1    0.000000   24.665023    6.201250   25.555971
       360       360         1    0.000000   31.645549    8.681750   27.182439
       361       361         1    0.000000   28.477488    6.201250   24.765094
       362       362         1    0.000000   24.476758    8.681750   32.631015
       363       363         1    0.000000   21.308697    6.201250   30.213670
       364       364         1    0.000000   28.289223    8.681750   31.840138
       365       365         1    0.000000   25.121162    6.201250   29.422792
       366       366         1    0.000000   21.120433    8.681750   37.288714
       367       367         1    0.000000   17.952372    6.201250   34.871368
       368       368         1    0.000000   24.932897    8.681750   36.497837
       369       369         1    0.000000   21.764836    6.201250   34.080491
       370       370         1    0.000000   17.764107    8.681750   41.946413
       371       371         1    0.000000   14.596046    6.201250   39.529067
       372       372         1    0.000000   21.576571    8.681750   41.155535
       373       373         1    0.000000   18.408510    6.201250   38.738190