LAMPPS input converted from DLPoly config file

      9144   atoms
      5776   bonds
      4328   angles
       960   impropers

       5   atom types
       2   bond types
       2   angle types
       1   improper types

    0.000000   37.541361 xlo xhi
    0.000000   34.446000 ylo yhi
    0.000000   90.000000 zlo zhi


  Masses

       1   40.080000    
       2   12.010000    
       3   16.000000    
       4   16.000000    
       5   1.0100000    

   Atoms

         1         1         1    0.000000    1.185411    1.489789   26.744526
         2         2         1    0.000000    1.185411    7.230789   26.744526
         3         3         1    0.000000    1.185411   12.971789   26.744526
         4         4         1    0.000000    1.185411   18.712789   26.744526
         5         5         1    0.000000    1.185411   24.453789   26.744526
         6         6         1    0.000000    1.185411   30.194789   26.744526
         7         7         1    0.000000    8.337608    4.360289   25.353962
         8         8         1    0.000000   10.570752    1.489789   26.744526
         9         9         1    0.000000    8.337608   10.101289   25.353962
        10        10         1    0.000000   10.570752    7.230789   26.744526
        11        11         1    0.000000    8.337608   15.842289   25.353962
        12        12         1    0.000000   10.570752   12.971789   26.744526
        13        13         1    0.000000    8.337608   21.583289   25.353962
        14        14         1    0.000000   10.570752   18.712789   26.744526
        15        15         1    0.000000    8.337608   27.324289   25.353962
        16        16         1    0.000000   10.570752   24.453789   26.744526
        17        17         1    0.000000    8.337608   33.065289   25.353962
        18        18         1    0.000000   10.570752   30.194789   26.744526
        19        19         1    0.000000    5.715271    4.360289   29.565241
        20        20         1    0.000000    3.644938    4.251210   25.353962
        21        21         1    0.000000    7.948415    1.489789   30.955805
        22        22         1    0.000000    5.878081    1.380710   26.744526
        23        23         1    0.000000    5.715271   10.101289   29.565241
        24        24         1    0.000000    3.644938    9.992210   25.353962
        25        25         1    0.000000    7.948415    7.230789   30.955805
        26        26         1    0.000000    5.878081    7.121710   26.744526
        27        27         1    0.000000    5.715271   15.842289   29.565241
        28        28         1    0.000000    3.644938   15.733210   25.353962
        29        29         1    0.000000    7.948415   12.971789   30.955805
        30        30         1    0.000000    5.878081   12.862710   26.744526
        31        31         1    0.000000    5.715271   21.583289   29.565241
        32        32         1    0.000000    3.644938   21.474210   25.353962
        33        33         1    0.000000    7.948415   18.712789   30.955805
        34        34         1    0.000000    5.878081   18.603710   26.744526
        35        35         1    0.000000    5.715271   27.324289   29.565241
        36        36         1    0.000000    3.644938   27.215210   25.353962
        37        37         1    0.000000    7.948415   24.453789   30.955805
        38        38         1    0.000000    5.878081   24.344710   26.744526
        39        39         1    0.000000    5.715271   33.065289   29.565241
        40        40         1    0.000000    3.644938   32.956210   25.353962
        41        41         1    0.000000    7.948415   30.194789   30.955805
        42        42         1    0.000000    5.878081   30.085710   26.744526
        43        43         1    0.000000    3.092935    4.360289   33.776520
        44        44         1    0.000000    1.022601    4.251210   29.565241
        45        45         1    0.000000    5.326078    1.489789   35.167084
        46        46         1    0.000000    3.255745    1.380710   30.955805
        47        47         1    0.000000    3.092935   10.101289   33.776520
        48        48         1    0.000000    1.022601    9.992210   29.565241
        49        49         1    0.000000    5.326078    7.230789   35.167084
        50        50         1    0.000000    3.255745    7.121710   30.955805
        51        51         1    0.000000    3.092935   15.842289   33.776520
        52        52         1    0.000000    1.022601   15.733210   29.565241
        53        53         1    0.000000    5.326078   12.971789   35.167084
        54        54         1    0.000000    3.255745   12.862710   30.955805
        55        55         1    0.000000    3.092935   21.583289   33.776520
        56        56         1    0.000000    1.022601   21.474210   29.565241
        57        57         1    0.000000    5.326078   18.712789   35.167084
        58        58         1    0.000000    3.255745   18.603710   30.955805
        59        59         1    0.000000    3.092935   27.324289   33.776520
        60        60         1    0.000000    1.022601   27.215210   29.565241
        61        61         1    0.000000    5.326078   24.453789   35.167084
        62        62         1    0.000000    3.255745   24.344710   30.955805
        63        63         1    0.000000    3.092935   33.065289   33.776520
        64        64         1    0.000000    1.022601   32.956210   29.565241
        65        65         1    0.000000    5.326078   30.194789   35.167084
        66        66         1    0.000000    3.255745   30.085710   30.955805
        67        67         1    0.000000    0.470598    4.360289   37.987799
        68        68         1    0.000000    2.703742    1.489789   39.378364
        69        69         1    0.000000    0.633408    1.380710   35.167084
        70        70         1    0.000000    0.470598   10.101289   37.987799
        71        71         1    0.000000    2.703742    7.230789   39.378364
        72        72         1    0.000000    0.633408    7.121710   35.167084
        73        73         1    0.000000    0.470598   15.842289   37.987799
        74        74         1    0.000000    2.703742   12.971789   39.378364
        75        75         1    0.000000    0.633408   12.862710   35.167084
        76        76         1    0.000000    0.470598   21.583289   37.987799
        77        77         1    0.000000    2.703742   18.712789   39.378364
        78        78         1    0.000000    0.633408   18.603710   35.167084
        79        79         1    0.000000    0.470598   27.324289   37.987799
        80        80         1    0.000000    2.703742   24.453789   39.378364
        81        81         1    0.000000    0.633408   24.344710   35.167084
        82        82         1    0.000000    0.470598   33.065289   37.987799
        83        83         1    0.000000    2.703742   30.194789   39.378364
        84        84         1    0.000000    0.633408   30.085710   35.167084
        85        85         1    0.000000    0.081405    1.489789   43.589643
        86        86         1    0.000000    0.081405    7.230789   43.589643
        87        87         1    0.000000    0.081405   12.971789   43.589643
        88        88         1    0.000000    0.081405   18.712789   43.589643
        89        89         1    0.000000    0.081405   24.453789   43.589643
        90        90         1    0.000000    0.081405   30.194789   43.589643
        91        91         1    0.000000   17.722948    4.360289   25.353962
        92        92         1    0.000000   19.956092    1.489789   26.744526
        93        93         1    0.000000   17.722948   10.101289   25.353962
        94        94         1    0.000000   19.956092    7.230789   26.744526
        95        95         1    0.000000   17.722948   15.842289   25.353962
        96        96         1    0.000000   19.956092   12.971789   26.744526
        97        97         1    0.000000   17.722948   21.583289   25.353962
        98        98         1    0.000000   19.956092   18.712789   26.744526
        99        99         1    0.000000   17.722948   27.324289   25.353962
       100       100         1    0.000000   19.956092   24.453789   26.744526
       101       101         1    0.000000   17.722948   33.065289   25.353962
       102       102         1    0.000000   19.956092   30.194789   26.744526
       103       103         1    0.000000   15.100611    4.360289   29.565241
       104       104         1    0.000000   13.030278    4.251210   25.353962
       105       105         1    0.000000   17.333755    1.489789   30.955805
       106       106         1    0.000000   15.263422    1.380710   26.744526
       107       107         1    0.000000   15.100611   10.101289   29.565241
       108       108         1    0.000000   13.030278    9.992210   25.353962
       109       109         1    0.000000   17.333755    7.230789   30.955805
       110       110         1    0.000000   15.263422    7.121710   26.744526
       111       111         1    0.000000   15.100611   15.842289   29.565241
       112       112         1    0.000000   13.030278   15.733210   25.353962
       113       113         1    0.000000   17.333755   12.971789   30.955805
       114       114         1    0.000000   15.263422   12.862710   26.744526
       115       115         1    0.000000   15.100611   21.583289   29.565241
       116       116         1    0.000000   13.030278   21.474210   25.353962
       117       117         1    0.000000   17.333755   18.712789   30.955805
       118       118         1    0.000000   15.263422   18.603710   26.744526
       119       119         1    0.000000   15.100611   27.324289   29.565241
       120       120         1    0.000000   13.030278   27.215210   25.353962
       121       121         1    0.000000   17.333755   24.453789   30.955805
       122       122         1    0.000000   15.263422   24.344710   26.744526
       123       123         1    0.000000   15.100611   33.065289   29.565241
       124       124         1    0.000000   13.030278   32.956210   25.353962
       125       125         1    0.000000   17.333755   30.194789   30.955805
       126       126         1    0.000000   15.263422   30.085710   26.744526
       127       127         1    0.000000   12.478275    4.360289   33.776520
       128       128         1    0.000000   10.407941    4.251210   29.565241
       129       129         1    0.000000   14.711419    1.489789   35.167084
       130       130         1    0.000000   12.641085    1.380710   30.955805
       131       131         1    0.000000   12.478275   10.101289   33.776520
       132       132         1    0.000000   10.407941    9.992210   29.565241
       133       133         1    0.000000   14.711419    7.230789   35.167084
       134       134         1    0.000000   12.641085    7.121710   30.955805
       135       135         1    0.000000   12.478275   15.842289   33.776520
       136       136         1    0.000000   10.407941   15.733210   29.565241
       137       137         1    0.000000   14.711419   12.971789   35.167084
       138       138         1    0.000000   12.641085   12.862710   30.955805
       139       139         1    0.000000   12.478275   21.583289   33.776520
       140       140         1    0.000000   10.407941   21.474210   29.565241
       141       141         1    0.000000   14.711419   18.712789   35.167084
       142       142         1    0.000000   12.641085   18.603710   30.955805
       143       143         1    0.000000   12.478275   27.324289   33.776520
       144       144         1    0.000000   10.407941   27.215210   29.565241
       145       145         1    0.000000   14.711419   24.453789   35.167084
       146       146         1    0.000000   12.641085   24.344710   30.955805
       147       147         1    0.000000   12.478275   33.065289   33.776520
       148       148         1    0.000000   10.407941   32.956210   29.565241
       149       149         1    0.000000   14.711419   30.194789   35.167084
       150       150         1    0.000000   12.641085   30.085710   30.955805
       151       151         1    0.000000    9.855938    4.360289   37.987799
       152       152         1    0.000000    7.785605    4.251210   33.776520
       153       153         1    0.000000   12.089082    1.489789   39.378364
       154       154         1    0.000000   10.018748    1.380710   35.167084
       155       155         1    0.000000    9.855938   10.101289   37.987799
       156       156         1    0.000000    7.785605    9.992210   33.776520
       157       157         1    0.000000   12.089082    7.230789   39.378364
       158       158         1    0.000000   10.018748    7.121710   35.167084
       159       159         1    0.000000    9.855938   15.842289   37.987799
       160       160         1    0.000000    7.785605   15.733210   33.776520
       161       161         1    0.000000   12.089082   12.971789   39.378364
       162       162         1    0.000000   10.018748   12.862710   35.167084
       163       163         1    0.000000    9.855938   21.583289   37.987799
       164       164         1    0.000000    7.785605   21.474210   33.776520
       165       165         1    0.000000   12.089082   18.712789   39.378364
       166       166         1    0.000000   10.018748   18.603710   35.167084
       167       167         1    0.000000    9.855938   27.324289   37.987799
       168       168         1    0.000000    7.785605   27.215210   33.776520
       169       169         1    0.000000   12.089082   24.453789   39.378364
       170       170         1    0.000000   10.018748   24.344710   35.167084
       171       171         1    0.000000    9.855938   33.065289   37.987799
       172       172         1    0.000000    7.785605   32.956210   33.776520
       173       173         1    0.000000   12.089082   30.194789   39.378364
       174       174         1    0.000000   10.018748   30.085710   35.167084
       175       175         1    0.000000    7.233602    4.360289   42.199078
       176       176         1    0.000000    5.163268    4.251210   37.987799
       177       177         1    0.000000    9.466745    1.489789   43.589643
       178       178         1    0.000000    7.396412    1.380710   39.378364
       179       179         1    0.000000    7.233602   10.101289   42.199078
       180       180         1    0.000000    5.163268    9.992210   37.987799
       181       181         1    0.000000    9.466745    7.230789   43.589643
       182       182         1    0.000000    7.396412    7.121710   39.378364
       183       183         1    0.000000    7.233602   15.842289   42.199078
       184       184         1    0.000000    5.163268   15.733210   37.987799
       185       185         1    0.000000    9.466745   12.971789   43.589643
       186       186         1    0.000000    7.396412   12.862710   39.378364
       187       187         1    0.000000    7.233602   21.583289   42.199078
       188       188         1    0.000000    5.163268   21.474210   37.987799
       189       189         1    0.000000    9.466745   18.712789   43.589643
       190       190         1    0.000000    7.396412   18.603710   39.378364
       191       191         1    0.000000    7.233602   27.324289   42.199078
       192       192         1    0.000000    5.163268   27.215210   37.987799
       193       193         1    0.000000    9.466745   24.453789   43.589643
       194       194         1    0.000000    7.396412   24.344710   39.378364
       195       195         1    0.000000    7.233602   33.065289   42.199078
       196       196         1    0.000000    5.163268   32.956210   37.987799
       197       197         1    0.000000    9.466745   30.194789   43.589643
       198       198         1    0.000000    7.396412   30.085710   39.378364
       199       199         1    0.000000    4.611265    4.360289   46.410357
       200       200         1    0.000000    2.540931    4.251210   42.199078
       201       201         1    0.000000    6.844409    1.489789   47.800922
       202       202         1    0.000000    4.774075    1.380710   43.589643
       203       203         1    0.000000    4.611265   10.101289   46.410357
       204       204         1    0.000000    2.540931    9.992210   42.199078
       205       205         1    0.000000    6.844409    7.230789   47.800922
       206       206         1    0.000000    4.774075    7.121710   43.589643
       207       207         1    0.000000    4.611265   15.842289   46.410357
       208       208         1    0.000000    2.540931   15.733210   42.199078
       209       209         1    0.000000    6.844409   12.971789   47.800922
       210       210         1    0.000000    4.774075   12.862710   43.589643
       211       211         1    0.000000    4.611265   21.583289   46.410357
       212       212         1    0.000000    2.540931   21.474210   42.199078
       213       213         1    0.000000    6.844409   18.712789   47.800922
       214       214         1    0.000000    4.774075   18.603710   43.589643
       215       215         1    0.000000    4.611265   27.324289   46.410357
       216       216         1    0.000000    2.540931   27.215210   42.199078
       217       217         1    0.000000    6.844409   24.453789   47.800922
       218       218         1    0.000000    4.774075   24.344710   43.589643
       219       219         1    0.000000    4.611265   33.065289   46.410357
       220       220         1    0.000000    2.540931   32.956210   42.199078
       221       221         1    0.000000    6.844409   30.194789   47.800922
       222       222         1    0.000000    4.774075   30.085710   43.589643
       223       223         1    0.000000    1.988928    4.360289   50.621636
       224       224         1    0.000000    4.222072    1.489789   52.012201
       225       225         1    0.000000    2.151739    1.380710   47.800922
       226       226         1    0.000000    1.988928   10.101289   50.621636
       227       227         1    0.000000    4.222072    7.230789   52.012201
       228       228         1    0.000000    2.151739    7.121710   47.800922
       229       229         1    0.000000    1.988928   15.842289   50.621636
       230       230         1    0.000000    4.222072   12.971789   52.012201
       231       231         1    0.000000    2.151739   12.862710   47.800922
       232       232         1    0.000000    1.988928   21.583289   50.621636
       233       233         1    0.000000    4.222072   18.712789   52.012201
       234       234         1    0.000000    2.151739   18.603710   47.800922
       235       235         1    0.000000    1.988928   27.324289   50.621636
       236       236         1    0.000000    4.222072   24.453789   52.012201
       237       237         1    0.000000    2.151739   24.344710   47.800922
       238       238         1    0.000000    1.988928   33.065289   50.621636
       239       239         1    0.000000    4.222072   30.194789   52.012201
       240       240         1    0.000000    2.151739   30.085710   47.800922
       241       241         1    0.000000    1.599736    1.489789   56.223480
       242       242         1    0.000000    1.599736    7.230789   56.223480
       243       243         1    0.000000    1.599736   12.971789   56.223480
       244       244         1    0.000000    1.599736   18.712789   56.223480
       245       245         1    0.000000    1.599736   24.453789   56.223480
       246       246         1    0.000000    1.599736   30.194789   56.223480
       247       247         1    0.000000   27.108288    4.360289   25.353962
       248       248         1    0.000000   29.341432    1.489789   26.744526
       249       249         1    0.000000   27.108288   10.101289   25.353962
       250       250         1    0.000000   29.341432    7.230789   26.744526
       251       251         1    0.000000   27.108288   15.842289   25.353962
       252       252         1    0.000000   29.341432   12.971789   26.744526
       253       253         1    0.000000   27.108288   21.583289   25.353962
       254       254         1    0.000000   29.341432   18.712789   26.744526
       255       255         1    0.000000   27.108288   27.324289   25.353962
       256       256         1    0.000000   29.341432   24.453789   26.744526
       257       257         1    0.000000   27.108288   33.065289   25.353962
       258       258         1    0.000000   29.341432   30.194789   26.744526
       259       259         1    0.000000   24.485951    4.360289   29.565241
       260       260         1    0.000000   22.415618    4.251210   25.353962
       261       261         1    0.000000   26.719095    1.489789   30.955805
       262       262         1    0.000000   24.648762    1.380710   26.744526
       263       263         1    0.000000   24.485951   10.101289   29.565241
       264       264         1    0.000000   22.415618    9.992210   25.353962
       265       265         1    0.000000   26.719095    7.230789   30.955805
       266       266         1    0.000000   24.648762    7.121710   26.744526
       267       267         1    0.000000   24.485951   15.842289   29.565241
       268       268         1    0.000000   22.415618   15.733210   25.353962
       269       269         1    0.000000   26.719095   12.971789   30.955805
       270       270         1    0.000000   24.648762   12.862710   26.744526
       271       271         1    0.000000   24.485951   21.583289   29.565241
       272       272         1    0.000000   22.415618   21.474210   25.353962
       273       273         1    0.000000   26.719095   18.712789   30.955805
       274       274         1    0.000000   24.648762   18.603710   26.744526
       275       275         1    0.000000   24.485951   27.324289   29.565241
       276       276         1    0.000000   22.415618   27.215210   25.353962
       277       277         1    0.000000   26.719095   24.453789   30.955805
       278       278         1    0.000000   24.648762   24.344710   26.744526
       279       279         1    0.000000   24.485951   33.065289   29.565241
       280       280         1    0.000000   22.415618   32.956210   25.353962
       281       281         1    0.000000   26.719095   30.194789   30.955805
       282       282         1    0.000000   24.648762   30.085710   26.744526
       283       283         1    0.000000   21.863615    4.360289   33.776520
       284       284         1    0.000000   19.793281    4.251210   29.565241
       285       285         1    0.000000   24.096759    1.489789   35.167084
       286       286         1    0.000000   22.026425    1.380710   30.955805
       287       287         1    0.000000   21.863615   10.101289   33.776520
       288       288         1    0.000000   19.793281    9.992210   29.565241
       289       289         1    0.000000   24.096759    7.230789   35.167084
       290       290         1    0.000000   22.026425    7.121710   30.955805
       291       291         1    0.000000   21.863615   15.842289   33.776520
       292       292         1    0.000000   19.793281   15.733210   29.565241
       293       293         1    0.000000   24.096759   12.971789   35.167084
       294       294         1    0.000000   22.026425   12.862710   30.955805
       295       295         1    0.000000   21.863615   21.583289   33.776520
       296       296         1    0.000000   19.793281   21.474210   29.565241
       297       297         1    0.000000   24.096759   18.712789   35.167084
       298       298         1    0.000000   22.026425   18.603710   30.955805
       299       299         1    0.000000   21.863615   27.324289   33.776520
       300       300         1    0.000000   19.793281   27.215210   29.565241
       301       301         1    0.000000   24.096759   24.453789   35.167084
       302       302         1    0.000000   22.026425   24.344710   30.955805
       303       303         1    0.000000   21.863615   33.065289   33.776520
       304       304         1    0.000000   19.793281   32.956210   29.565241
       305       305         1    0.000000   24.096759   30.194789   35.167084
       306       306         1    0.000000   22.026425   30.085710   30.955805
       307       307         1    0.000000   19.241278    4.360289   37.987799
       308       308         1    0.000000   17.170945    4.251210   33.776520
       309       309         1    0.000000   21.474422    1.489789   39.378364
       310       310         1    0.000000   19.404089    1.380710   35.167084
       311       311         1    0.000000   19.241278   10.101289   37.987799
       312       312         1    0.000000   17.170945    9.992210   33.776520
       313       313         1    0.000000   21.474422    7.230789   39.378364
       314       314         1    0.000000   19.404089    7.121710   35.167084
       315       315         1    0.000000   19.241278   15.842289   37.987799
       316       316         1    0.000000   17.170945   15.733210   33.776520
       317       317         1    0.000000   21.474422   12.971789   39.378364
       318       318         1    0.000000   19.404089   12.862710   35.167084
       319       319         1    0.000000   19.241278   21.583289   37.987799
       320       320         1    0.000000   17.170945   21.474210   33.776520
       321       321         1    0.000000   21.474422   18.712789   39.378364
       322       322         1    0.000000   19.404089   18.603710   35.167084
       323       323         1    0.000000   19.241278   27.324289   37.987799
       324       324         1    0.000000   17.170945   27.215210   33.776520
       325       325         1    0.000000   21.474422   24.453789   39.378364
       326       326         1    0.000000   19.404089   24.344710   35.167084
       327       327         1    0.000000   19.241278   33.065289   37.987799
       328       328         1    0.000000   17.170945   32.956210   33.776520
       329       329         1    0.000000   21.474422   30.194789   39.378364
       330       330         1    0.000000   19.404089   30.085710   35.167084
       331       331         1    0.000000   16.618942    4.360289   42.199078
       332       332         1    0.000000   14.548608    4.251210   37.987799
       333       333         1    0.000000   18.852085    1.489789   43.589643
       334       334         1    0.000000   16.781752    1.380710   39.378364
       335       335         1    0.000000   16.618942   10.101289   42.199078
       336       336         1    0.000000   14.548608    9.992210   37.987799
       337       337         1    0.000000   18.852085    7.230789   43.589643
       338       338         1    0.000000   16.781752    7.121710   39.378364
       339       339         1    0.000000   16.618942   15.842289   42.199078
       340       340         1    0.000000   14.548608   15.733210   37.987799
       341       341         1    0.000000   18.852085   12.971789   43.589643
       342       342         1    0.000000   16.781752   12.862710   39.378364
       343       343         1    0.000000   16.618942   21.583289   42.199078
       344       344         1    0.000000   14.548608   21.474210   37.987799
       345       345         1    0.000000   18.852085   18.712789   43.589643
       346       346         1    0.000000   16.781752   18.603710   39.378364
       347       347         1    0.000000   16.618942   27.324289   42.199078
       348       348         1    0.000000   14.548608   27.215210   37.987799
       349       349         1    0.000000   18.852085   24.453789   43.589643
       350       350         1    0.000000   16.781752   24.344710   39.378364
       351       351         1    0.000000   16.618942   33.065289   42.199078
       352       352         1    0.000000   14.548608   32.956210   37.987799
       353       353         1    0.000000   18.852085   30.194789   43.589643
       354       354         1    0.000000   16.781752   30.085710   39.378364
       355       355         1    0.000000   13.996605    4.360289   46.410357
       356       356         1    0.000000   11.926272    4.251210   42.199078
       357       357         1    0.000000   16.229749    1.489789   47.800922
       358       358         1    0.000000   14.159415    1.380710   43.589643
       359       359         1    0.000000   13.996605   10.101289   46.410357
       360       360         1    0.000000   11.926272    9.992210   42.199078
       361       361         1    0.000000   16.229749    7.230789   47.800922
       362       362         1    0.000000   14.159415    7.121710   43.589643
       363       363         1    0.000000   13.996605   15.842289   46.410357
       364       364         1    0.000000   11.926272   15.733210   42.199078
       365       365         1    0.000000   16.229749   12.971789   47.800922
       366       366         1    0.000000   14.159415   12.862710   43.589643
       367       367         1    0.000000   13.996605   21.583289   46.410357
       368       368         1    0.000000   11.926272   21.474210   42.199078
       369       369         1    0.000000   16.229749   18.712789   47.800922
       370       370         1    0.000000   14.159415   18.603710   43.589643
       371       371         1    0.000000   13.996605   27.324289   46.410357
       372       372         1    0.000000   11.926272   27.215210   42.199078
       373       373         1    0.000000   16.229749   24.453789   47.800922