LAMPPS input converted from DLPoly config file

      9891   atoms
      6274   bonds
      4577   angles
       960   impropers

       5   atom types
       2   bond types
       2   angle types
       1   improper types

    0.000000   33.873378 xlo xhi
    0.000000   39.688000 ylo yhi
    0.000000   90.000000 zlo zhi


  Masses

       1   40.080000    
       2   12.010000    
       3   16.000000    
       4   16.000000    
       5   1.0100000    

   Atoms

         1         1         1    0.000000    3.194753    3.720750   26.376667
         2         2         1    0.000000    1.248737    3.720750   31.777788
         3         3         1    0.000000    4.696705    3.720750   29.968952
         4         4         1    0.000000    0.986011    1.240250   28.516051
         5         5         1    0.000000    2.750688    3.720750   35.370073
         6         6         1    0.000000    0.804671    3.720750   40.771193
         7         7         1    0.000000    3.194753    8.681750   26.376667
         8         8         1    0.000000    1.248737    8.681750   31.777788
         9         9         1    0.000000    4.696705    8.681750   29.968952
        10        10         1    0.000000    0.986011    6.201250   28.516051
        11        11         1    0.000000    2.750688    8.681750   35.370073
        12        12         1    0.000000    0.804671    8.681750   40.771193
        13        13         1    0.000000    3.194753   13.642750   26.376667
        14        14         1    0.000000    1.248737   13.642750   31.777788
        15        15         1    0.000000    4.696705   13.642750   29.968952
        16        16         1    0.000000    0.986011   11.162250   28.516051
        17        17         1    0.000000    2.750688   13.642750   35.370073
        18        18         1    0.000000    0.804671   13.642750   40.771193
        19        19         1    0.000000    3.194753   18.603750   26.376667
        20        20         1    0.000000    1.248737   18.603750   31.777788
        21        21         1    0.000000    4.696705   18.603750   29.968952
        22        22         1    0.000000    0.986011   16.123250   28.516051
        23        23         1    0.000000    2.750688   18.603750   35.370073
        24        24         1    0.000000    0.804671   18.603750   40.771193
        25        25         1    0.000000    3.194753   23.564750   26.376667
        26        26         1    0.000000    1.248737   23.564750   31.777788
        27        27         1    0.000000    4.696705   23.564750   29.968952
        28        28         1    0.000000    0.986011   21.084250   28.516051
        29        29         1    0.000000    2.750688   23.564750   35.370073
        30        30         1    0.000000    0.804671   23.564750   40.771193
        31        31         1    0.000000    3.194753   28.525750   26.376667
        32        32         1    0.000000    1.248737   28.525750   31.777788
        33        33         1    0.000000    4.696705   28.525750   29.968952
        34        34         1    0.000000    0.986011   26.045250   28.516051
        35        35         1    0.000000    2.750688   28.525750   35.370073
        36        36         1    0.000000    0.804671   28.525750   40.771193
        37        37         1    0.000000    3.194753   33.486750   26.376667
        38        38         1    0.000000    1.248737   33.486750   31.777788
        39        39         1    0.000000    4.696705   33.486750   29.968952
        40        40         1    0.000000    0.986011   31.006250   28.516051
        41        41         1    0.000000    2.750688   33.486750   35.370073
        42        42         1    0.000000    0.804671   33.486750   40.771193
        43        43         1    0.000000    3.194753   38.447750   26.376667
        44        44         1    0.000000    1.248737   38.447750   31.777788
        45        45         1    0.000000    4.696705   38.447750   29.968952
        46        46         1    0.000000    0.986011   35.967250   28.516051
        47        47         1    0.000000    2.750688   38.447750   35.370073
        48        48         1    0.000000    0.804671   38.447750   40.771193
        49        49         1    0.000000   10.690089    3.720750   29.077228
        50        50         1    0.000000    6.979396    1.240250   27.624326
        51        51         1    0.000000   14.138058    3.720750   27.268392
        52        52         1    0.000000   10.427364    1.240250   25.815491
        53        53         1    0.000000    8.744073    3.720750   34.478348
        54        54         1    0.000000    5.033379    1.240250   33.025446
        55        55         1    0.000000   12.192041    3.720750   32.669513
        56        56         1    0.000000    8.481347    1.240250   31.216611
        57        57         1    0.000000    6.798056    3.720750   39.879468
        58        58         1    0.000000    3.087362    1.240250   38.426567
        59        59         1    0.000000   10.246024    3.720750   38.070633
        60        60         1    0.000000    6.535331    1.240250   36.617731
        61        61         1    0.000000    4.852039    3.720750   45.280588
        62        62         1    0.000000    1.141345    1.240250   43.827687
        63        63         1    0.000000    8.300008    3.720750   43.471753
        64        64         1    0.000000    4.589314    1.240250   42.018852
        65        65         1    0.000000    2.906022    3.720750   50.681708
        66        66         1    0.000000    6.353991    3.720750   48.872873
        67        67         1    0.000000    2.643297    1.240250   47.419972
        68        68         1    0.000000    0.960006    3.720750   56.082829
        69        69         1    0.000000    4.407974    3.720750   54.273993
        70        70         1    0.000000    0.697280    1.240250   52.821092
        71        71         1    0.000000    2.461957    3.720750   59.675114
        72        72         1    0.000000    0.515940    3.720750   65.076234
        73        73         1    0.000000   10.690089    8.681750   29.077228
        74        74         1    0.000000    6.979396    6.201250   27.624326
        75        75         1    0.000000   14.138058    8.681750   27.268392
        76        76         1    0.000000   10.427364    6.201250   25.815491
        77        77         1    0.000000    8.744073    8.681750   34.478348
        78        78         1    0.000000    5.033379    6.201250   33.025446
        79        79         1    0.000000   12.192041    8.681750   32.669513
        80        80         1    0.000000    8.481347    6.201250   31.216611
        81        81         1    0.000000    6.798056    8.681750   39.879468
        82        82         1    0.000000    3.087362    6.201250   38.426567
        83        83         1    0.000000   10.246024    8.681750   38.070633
        84        84         1    0.000000    6.535331    6.201250   36.617731
        85        85         1    0.000000    4.852039    8.681750   45.280588
        86        86         1    0.000000    1.141345    6.201250   43.827687
        87        87         1    0.000000    8.300008    8.681750   43.471753
        88        88         1    0.000000    4.589314    6.201250   42.018852
        89        89         1    0.000000    2.906022    8.681750   50.681708
        90        90         1    0.000000    6.353991    8.681750   48.872873
        91        91         1    0.000000    2.643297    6.201250   47.419972
        92        92         1    0.000000    0.960006    8.681750   56.082829
        93        93         1    0.000000    4.407974    8.681750   54.273993
        94        94         1    0.000000    0.697280    6.201250   52.821092
        95        95         1    0.000000    2.461957    8.681750   59.675114
        96        96         1    0.000000    0.515940    8.681750   65.076234
        97        97         1    0.000000   10.690089   13.642750   29.077228
        98        98         1    0.000000    6.979396   11.162250   27.624326
        99        99         1    0.000000   14.138058   13.642750   27.268392
       100       100         1    0.000000   10.427364   11.162250   25.815491
       101       101         1    0.000000    8.744073   13.642750   34.478348
       102       102         1    0.000000    5.033379   11.162250   33.025446
       103       103         1    0.000000   12.192041   13.642750   32.669513
       104       104         1    0.000000    8.481347   11.162250   31.216611
       105       105         1    0.000000    6.798056   13.642750   39.879468
       106       106         1    0.000000    3.087362   11.162250   38.426567
       107       107         1    0.000000   10.246024   13.642750   38.070633
       108       108         1    0.000000    6.535331   11.162250   36.617731
       109       109         1    0.000000    4.852039   13.642750   45.280588
       110       110         1    0.000000    1.141345   11.162250   43.827687
       111       111         1    0.000000    8.300008   13.642750   43.471753
       112       112         1    0.000000    4.589314   11.162250   42.018852
       113       113         1    0.000000    2.906022   13.642750   50.681708
       114       114         1    0.000000    6.353991   13.642750   48.872873
       115       115         1    0.000000    2.643297   11.162250   47.419972
       116       116         1    0.000000    0.960006   13.642750   56.082829
       117       117         1    0.000000    4.407974   13.642750   54.273993
       118       118         1    0.000000    0.697280   11.162250   52.821092
       119       119         1    0.000000    2.461957   13.642750   59.675114
       120       120         1    0.000000    0.515940   13.642750   65.076234
       121       121         1    0.000000   10.690089   18.603750   29.077228
       122       122         1    0.000000    6.979396   16.123250   27.624326
       123       123         1    0.000000   14.138058   18.603750   27.268392
       124       124         1    0.000000   10.427364   16.123250   25.815491
       125       125         1    0.000000    8.744073   18.603750   34.478348
       126       126         1    0.000000    5.033379   16.123250   33.025446
       127       127         1    0.000000   12.192041   18.603750   32.669513
       128       128         1    0.000000    8.481347   16.123250   31.216611
       129       129         1    0.000000    6.798056   18.603750   39.879468
       130       130         1    0.000000    3.087362   16.123250   38.426567
       131       131         1    0.000000   10.246024   18.603750   38.070633
       132       132         1    0.000000    6.535331   16.123250   36.617731
       133       133         1    0.000000    4.852039   18.603750   45.280588
       134       134         1    0.000000    1.141345   16.123250   43.827687
       135       135         1    0.000000    8.300008   18.603750   43.471753
       136       136         1    0.000000    4.589314   16.123250   42.018852
       137       137         1    0.000000    2.906022   18.603750   50.681708
       138       138         1    0.000000    6.353991   18.603750   48.872873
       139       139         1    0.000000    2.643297   16.123250   47.419972
       140       140         1    0.000000    0.960006   18.603750   56.082829
       141       141         1    0.000000    4.407974   18.603750   54.273993
       142       142         1    0.000000    0.697280   16.123250   52.821092
       143       143         1    0.000000    2.461957   18.603750   59.675114
       144       144         1    0.000000    0.515940   18.603750   65.076234
       145       145         1    0.000000   10.690089   23.564750   29.077228
       146       146         1    0.000000    6.979396   21.084250   27.624326
       147       147         1    0.000000   14.138058   23.564750   27.268392
       148       148         1    0.000000   10.427364   21.084250   25.815491
       149       149         1    0.000000    8.744073   23.564750   34.478348
       150       150         1    0.000000    5.033379   21.084250   33.025446
       151       151         1    0.000000   12.192041   23.564750   32.669513
       152       152         1    0.000000    8.481347   21.084250   31.216611
       153       153         1    0.000000    6.798056   23.564750   39.879468
       154       154         1    0.000000    3.087362   21.084250   38.426567
       155       155         1    0.000000   10.246024   23.564750   38.070633
       156       156         1    0.000000    6.535331   21.084250   36.617731
       157       157         1    0.000000    4.852039   23.564750   45.280588
       158       158         1    0.000000    1.141345   21.084250   43.827687
       159       159         1    0.000000    8.300008   23.564750   43.471753
       160       160         1    0.000000    4.589314   21.084250   42.018852
       161       161         1    0.000000    2.906022   23.564750   50.681708
       162       162         1    0.000000    6.353991   23.564750   48.872873
       163       163         1    0.000000    2.643297   21.084250   47.419972
       164       164         1    0.000000    0.960006   23.564750   56.082829
       165       165         1    0.000000    4.407974   23.564750   54.273993
       166       166         1    0.000000    0.697280   21.084250   52.821092
       167       167         1    0.000000    2.461957   23.564750   59.675114
       168       168         1    0.000000    0.515940   23.564750   65.076234
       169       169         1    0.000000   10.690089   28.525750   29.077228
       170       170         1    0.000000    6.979396   26.045250   27.624326
       171       171         1    0.000000   14.138058   28.525750   27.268392
       172       172         1    0.000000   10.427364   26.045250   25.815491
       173       173         1    0.000000    8.744073   28.525750   34.478348
       174       174         1    0.000000    5.033379   26.045250   33.025446
       175       175         1    0.000000   12.192041   28.525750   32.669513
       176       176         1    0.000000    8.481347   26.045250   31.216611
       177       177         1    0.000000    6.798056   28.525750   39.879468
       178       178         1    0.000000    3.087362   26.045250   38.426567
       179       179         1    0.000000   10.246024   28.525750   38.070633
       180       180         1    0.000000    6.535331   26.045250   36.617731
       181       181         1    0.000000    4.852039   28.525750   45.280588
       182       182         1    0.000000    1.141345   26.045250   43.827687
       183       183         1    0.000000    8.300008   28.525750   43.471753
       184       184         1    0.000000    4.589314   26.045250   42.018852
       185       185         1    0.000000    2.906022   28.525750   50.681708
       186       186         1    0.000000    6.353991   28.525750   48.872873
       187       187         1    0.000000    2.643297   26.045250   47.419972
       188       188         1    0.000000    0.960006   28.525750   56.082829
       189       189         1    0.000000    4.407974   28.525750   54.273993
       190       190         1    0.000000    0.697280   26.045250   52.821092
       191       191         1    0.000000    2.461957   28.525750   59.675114
       192       192         1    0.000000    0.515940   28.525750   65.076234
       193       193         1    0.000000   10.690089   33.486750   29.077228
       194       194         1    0.000000    6.979396   31.006250   27.624326
       195       195         1    0.000000   14.138058   33.486750   27.268392
       196       196         1    0.000000   10.427364   31.006250   25.815491
       197       197         1    0.000000    8.744073   33.486750   34.478348
       198       198         1    0.000000    5.033379   31.006250   33.025446
       199       199         1    0.000000   12.192041   33.486750   32.669513
       200       200         1    0.000000    8.481347   31.006250   31.216611
       201       201         1    0.000000    6.798056   33.486750   39.879468
       202       202         1    0.000000    3.087362   31.006250   38.426567
       203       203         1    0.000000   10.246024   33.486750   38.070633
       204       204         1    0.000000    6.535331   31.006250   36.617731
       205       205         1    0.000000    4.852039   33.486750   45.280588
       206       206         1    0.000000    1.141345   31.006250   43.827687
       207       207         1    0.000000    8.300008   33.486750   43.471753
       208       208         1    0.000000    4.589314   31.006250   42.018852
       209       209         1    0.000000    2.906022   33.486750   50.681708
       210       210         1    0.000000    6.353991   33.486750   48.872873
       211       211         1    0.000000    2.643297   31.006250   47.419972
       212       212         1    0.000000    0.960006   33.486750   56.082829
       213       213         1    0.000000    4.407974   33.486750   54.273993
       214       214         1    0.000000    0.697280   31.006250   52.821092
       215       215         1    0.000000    2.461957   33.486750   59.675114
       216       216         1    0.000000    0.515940   33.486750   65.076234
       217       217         1    0.000000   10.690089   38.447750   29.077228
       218       218         1    0.000000    6.979396   35.967250   27.624326
       219       219         1    0.000000   14.138058   38.447750   27.268392
       220       220         1    0.000000   10.427364   35.967250   25.815491
       221       221         1    0.000000    8.744073   38.447750   34.478348
       222       222         1    0.000000    5.033379   35.967250   33.025446
       223       223         1    0.000000   12.192041   38.447750   32.669513
       224       224         1    0.000000    8.481347   35.967250   31.216611
       225       225         1    0.000000    6.798056   38.447750   39.879468
       226       226         1    0.000000    3.087362   35.967250   38.426567
       227       227         1    0.000000   10.246024   38.447750   38.070633
       228       228         1    0.000000    6.535331   35.967250   36.617731
       229       229         1    0.000000    4.852039   38.447750   45.280588
       230       230         1    0.000000    1.141345   35.967250   43.827687
       231       231         1    0.000000    8.300008   38.447750   43.471753
       232       232         1    0.000000    4.589314   35.967250   42.018852
       233       233         1    0.000000    2.906022   38.447750   50.681708
       234       234         1    0.000000    6.353991   38.447750   48.872873
       235       235         1    0.000000    2.643297   35.967250   47.419972
       236       236         1    0.000000    0.960006   38.447750   56.082829
       237       237         1    0.000000    4.407974   38.447750   54.273993
       238       238         1    0.000000    0.697280   35.967250   52.821092
       239       239         1    0.000000    2.461957   38.447750   59.675114
       240       240         1    0.000000    0.515940   38.447750   65.076234
       241       241         1    0.000000   20.131442    3.720750   26.376667
       242       242         1    0.000000   16.420749    1.240250   24.923766
       243       243         1    0.000000   18.185426    3.720750   31.777788
       244       244         1    0.000000   14.474732    1.240250   30.324886
       245       245         1    0.000000   21.633394    3.720750   29.968952
       246       246         1    0.000000   17.922700    1.240250   28.516051
       247       247         1    0.000000   16.239409    3.720750   37.178908
       248       248         1    0.000000   12.528715    1.240250   35.726007
       249       249         1    0.000000   19.687377    3.720750   35.370073
       250       250         1    0.000000   15.976683    1.240250   33.917171
       251       251         1    0.000000   14.293392    3.720750   42.580028
       252       252         1    0.000000   10.582698    1.240250   41.127127
       253       253         1    0.000000   17.741360    3.720750   40.771193
       254       254         1    0.000000   14.030667    1.240250   39.318292
       255       255         1    0.000000   12.347375    3.720750   47.981148
       256       256         1    0.000000    8.636682    1.240250   46.528247
       257       257         1    0.000000   15.795344    3.720750   46.172313
       258       258         1    0.000000   12.084650    1.240250   44.719412
       259       259         1    0.000000   10.401359    3.720750   53.382269
       260       260         1    0.000000    6.690665    1.240250   51.929367
       261       261         1    0.000000   13.849327    3.720750   51.573433
       262       262         1    0.000000   10.138633    1.240250   50.120532
       263       263         1    0.000000    8.455342    3.720750   58.783389
       264       264         1    0.000000    4.744648    1.240250   57.330487
       265       265         1    0.000000   11.903310    3.720750   56.974554
       266       266         1    0.000000    8.192616    1.240250   55.521652
       267       267         1    0.000000    6.509325    3.720750   64.184509
       268       268         1    0.000000    2.798631    1.240250   62.731608
       269       269         1    0.000000    9.957293    3.720750   62.375674
       270       270         1    0.000000    6.246600    1.240250   60.922772
       271       271         1    0.000000   20.131442    8.681750   26.376667
       272       272         1    0.000000   16.420749    6.201250   24.923766
       273       273         1    0.000000   18.185426    8.681750   31.777788
       274       274         1    0.000000   14.474732    6.201250   30.324886
       275       275         1    0.000000   21.633394    8.681750   29.968952
       276       276         1    0.000000   17.922700    6.201250   28.516051
       277       277         1    0.000000   16.239409    8.681750   37.178908
       278       278         1    0.000000   12.528715    6.201250   35.726007
       279       279         1    0.000000   19.687377    8.681750   35.370073
       280       280         1    0.000000   15.976683    6.201250   33.917171
       281       281         1    0.000000   14.293392    8.681750   42.580028
       282       282         1    0.000000   10.582698    6.201250   41.127127
       283       283         1    0.000000   17.741360    8.681750   40.771193
       284       284         1    0.000000   14.030667    6.201250   39.318292
       285       285         1    0.000000   12.347375    8.681750   47.981148
       286       286         1    0.000000    8.636682    6.201250   46.528247
       287       287         1    0.000000   15.795344    8.681750   46.172313
       288       288         1    0.000000   12.084650    6.201250   44.719412
       289       289         1    0.000000   10.401359    8.681750   53.382269
       290       290         1    0.000000    6.690665    6.201250   51.929367
       291       291         1    0.000000   13.849327    8.681750   51.573433
       292       292         1    0.000000   10.138633    6.201250   50.120532
       293       293         1    0.000000    8.455342    8.681750   58.783389
       294       294         1    0.000000    4.744648    6.201250   57.330487
       295       295         1    0.000000   11.903310    8.681750   56.974554
       296       296         1    0.000000    8.192616    6.201250   55.521652
       297       297         1    0.000000    6.509325    8.681750   64.184509
       298       298         1    0.000000    2.798631    6.201250   62.731608
       299       299         1    0.000000    9.957293    8.681750   62.375674
       300       300         1    0.000000    6.246600    6.201250   60.922772
       301       301         1    0.000000   20.131442   13.642750   26.376667
       302       302         1    0.000000   16.420749   11.162250   24.923766
       303       303         1    0.000000   18.185426   13.642750   31.777788
       304       304         1    0.000000   14.474732   11.162250   30.324886
       305       305         1    0.000000   21.633394   13.642750   29.968952
       306       306         1    0.000000   17.922700   11.162250   28.516051
       307       307         1    0.000000   16.239409   13.642750   37.178908
       308       308         1    0.000000   12.528715   11.162250   35.726007
       309       309         1    0.000000   19.687377   13.642750   35.370073
       310       310         1    0.000000   15.976683   11.162250   33.917171
       311       311         1    0.000000   14.293392   13.642750   42.580028
       312       312         1    0.000000   10.582698   11.162250   41.127127
       313       313         1    0.000000   17.741360   13.642750   40.771193
       314       314         1    0.000000   14.030667   11.162250   39.318292
       315       315         1    0.000000   12.347375   13.642750   47.981148
       316       316         1    0.000000    8.636682   11.162250   46.528247
       317       317         1    0.000000   15.795344   13.642750   46.172313
       318       318         1    0.000000   12.084650   11.162250   44.719412
       319       319         1    0.000000   10.401359   13.642750   53.382269
       320       320         1    0.000000    6.690665   11.162250   51.929367
       321       321         1    0.000000   13.849327   13.642750   51.573433
       322       322         1    0.000000   10.138633   11.162250   50.120532
       323       323         1    0.000000    8.455342   13.642750   58.783389
       324       324         1    0.000000    4.744648   11.162250   57.330487
       325       325         1    0.000000   11.903310   13.642750   56.974554
       326       326         1    0.000000    8.192616   11.162250   55.521652
       327       327         1    0.000000    6.509325   13.642750   64.184509
       328       328         1    0.000000    2.798631   11.162250   62.731608
       329       329         1    0.000000    9.957293   13.642750   62.375674
       330       330         1    0.000000    6.246600   11.162250   60.922772
       331       331         1    0.000000   20.131442   18.603750   26.376667
       332       332         1    0.000000   16.420749   16.123250   24.923766
       333       333         1    0.000000   18.185426   18.603750   31.777788
       334       334         1    0.000000   14.474732   16.123250   30.324886
       335       335         1    0.000000   21.633394   18.603750   29.968952
       336       336         1    0.000000   17.922700   16.123250   28.516051
       337       337         1    0.000000   16.239409   18.603750   37.178908
       338       338         1    0.000000   12.528715   16.123250   35.726007
       339       339         1    0.000000   19.687377   18.603750   35.370073
       340       340         1    0.000000   15.976683   16.123250   33.917171
       341       341         1    0.000000   14.293392   18.603750   42.580028
       342       342         1    0.000000   10.582698   16.123250   41.127127
       343       343         1    0.000000   17.741360   18.603750   40.771193
       344       344         1    0.000000   14.030667   16.123250   39.318292
       345       345         1    0.000000   12.347375   18.603750   47.981148
       346       346         1    0.000000    8.636682   16.123250   46.528247
       347       347         1    0.000000   15.795344   18.603750   46.172313
       348       348         1    0.000000   12.084650   16.123250   44.719412
       349       349         1    0.000000   10.401359   18.603750   53.382269
       350       350         1    0.000000    6.690665   16.123250   51.929367
       351       351         1    0.000000   13.849327   18.603750   51.573433
       352       352         1    0.000000   10.138633   16.123250   50.120532
       353       353         1    0.000000    8.455342   18.603750   58.783389
       354       354         1    0.000000    4.744648   16.123250   57.330487
       355       355         1    0.000000   11.903310   18.603750   56.974554
       356       356         1    0.000000    8.192616   16.123250   55.521652
       357       357         1    0.000000    6.509325   18.603750   64.184509
       358       358         1    0.000000    2.798631   16.123250   62.731608
       359       359         1    0.000000    9.957293   18.603750   62.375674
       360       360         1    0.000000    6.246600   16.123250   60.922772
       361       361         1    0.000000   20.131442   23.564750   26.376667
       362       362         1    0.000000   16.420749   21.084250   24.923766
       363       363         1    0.000000   18.185426   23.564750   31.777788
       364       364         1    0.000000   14.474732   21.084250   30.324886
       365       365         1    0.000000   21.633394   23.564750   29.968952
       366       366         1    0.000000   17.922700   21.084250   28.516051
       367       367         1    0.000000   16.239409   23.564750   37.178908
       368       368         1    0.000000   12.528715   21.084250   35.726007
       369       369         1    0.000000   19.687377   23.564750   35.370073
       370       370         1    0.000000   15.976683   21.084250   33.917171
       371       371         1    0.000000   14.293392   23.564750   42.580028
       372       372         1    0.000000   10.582698   21.084250   41.127127
       373       373         1    0.000000   17.741360   23.564750   40.771193