LAMPPS input converted from DLPoly config file

     11312   atoms
      7168   bonds
      5264   angles
      1120   impropers

       5   atom types
       2   bond types
       2   angle types
       1   improper types

    0.000000   45.852837 xlo xhi
    0.000000   33.381709 ylo yhi
    0.000000   90.000000 zlo zhi

   17.176008    0.000000    0.000000 xy xz yz

  Masses

       1   40.080000    
       2   12.010000    
       3   16.000000    
       4   16.000000    
       5   1.0100000    

   Atoms

         1         1         1    0.000000   15.394004   28.308856   26.461449
         2         2         1    0.000000   21.125608   30.820269   25.678247
         3         3         1    0.000000   22.563211   27.569161   24.089547
         4         4         1    0.000000   18.250403   32.299658   30.422051
         5         5         1    0.000000   19.688006   29.048551   28.833351
         6         6         1    0.000000   17.595634   32.453461   26.371317
         7         7         1    0.000000   16.812800   30.527940   33.577156
         8         8         1    0.000000   25.419610   31.559964   28.050149
         9         9         1    0.000000   26.857213   28.308856   26.461449
        10        10         1    0.000000   22.544405   33.039353   32.793954
        11        11         1    0.000000   23.982008   29.788246   31.205254
        12        12         1    0.000000   21.889635   33.193156   28.743219
        13        13         1    0.000000   21.106802   31.267635   35.949058
        14        14         1    0.000000   18.231597   32.747025   40.692863
        15        15         1    0.000000   32.588818   30.820269   25.678247
        16        16         1    0.000000   34.026420   27.569161   24.089547
        17        17         1    0.000000   29.713612   32.299658   30.422051
        18        18         1    0.000000   31.151215   29.048551   28.833351
        19        19         1    0.000000   29.058843   32.453461   26.371317
        20        20         1    0.000000   28.276009   30.527940   33.577156
        21        21         1    0.000000   25.400804   32.007330   38.320960
        22        22         1    0.000000   36.882819   31.559964   28.050149
        23        23         1    0.000000   38.320422   28.308856   26.461449
        24        24         1    0.000000   34.007614   33.039353   32.793954
        25        25         1    0.000000   35.445217   29.788246   31.205254
        26        26         1    0.000000   33.352845   33.193156   28.743219
        27        27         1    0.000000   32.570011   31.267635   35.949058
        28        28         1    0.000000   29.694806   32.747025   40.692863
        29        29         1    0.000000   44.052027   30.820269   25.678247
        30        30         1    0.000000   45.489629   27.569161   24.089547
        31        31         1    0.000000   41.176821   32.299658   30.422051
        32        32         1    0.000000   42.614424   29.048551   28.833351
        33        33         1    0.000000   40.522052   32.453461   26.371317
        34        34         1    0.000000   39.739219   30.527940   33.577156
        35        35         1    0.000000   36.864013   32.007330   38.320960
        36        36         1    0.000000   48.346029   31.559964   28.050149
        37        37         1    0.000000   49.783631   28.308856   26.461449
        38        38         1    0.000000   45.470823   33.039353   32.793954
        39        39         1    0.000000   46.908426   29.788246   31.205254
        40        40         1    0.000000   44.816054   33.193156   28.743219
        41        41         1    0.000000   44.033220   31.267635   35.949058
        42        42         1    0.000000   41.158015   32.747025   40.692863
        43        43         1    0.000000   55.515236   30.820269   25.678247
        44        44         1    0.000000   56.952839   27.569161   24.089547
        45        45         1    0.000000   52.640030   32.299658   30.422051
        46        46         1    0.000000   54.077633   29.048551   28.833351
        47        47         1    0.000000   51.985261   32.453461   26.371317
        48        48         1    0.000000   51.202428   30.527940   33.577156
        49        49         1    0.000000   48.327222   32.007330   38.320960
        50        50         1    0.000000   59.809238   31.559964   28.050149
        51        51         1    0.000000   56.934032   33.039353   32.793954
        52        52         1    0.000000   58.371635   29.788246   31.205254
        53        53         1    0.000000   56.279263   33.193156   28.743219
        54        54         1    0.000000   55.496430   31.267635   35.949058
        55        55         1    0.000000   52.621224   32.747025   40.692863
        56        56         1    0.000000   59.790432   32.007330   38.320960
        57        57         1    0.000000   11.100002   19.963429   26.461449
        58        58         1    0.000000   16.831606   22.474842   25.678247
        59        59         1    0.000000   18.269209   19.223734   24.089547
        60        60         1    0.000000   13.956401   23.954231   30.422051
        61        61         1    0.000000   15.394004   20.703123   28.833351
        62        62         1    0.000000   13.301632   24.108034   26.371317
        63        63         1    0.000000   12.518798   22.182513   33.577156
        64        64         1    0.000000   21.125608   23.214536   28.050149
        65        65         1    0.000000   19.033236   26.619447   25.588115
        66        66         1    0.000000   22.563211   19.963429   26.461449
        67        67         1    0.000000   18.250403   24.693926   32.793954
        68        68         1    0.000000   16.158031   28.098836   30.331919
        69        69         1    0.000000   19.688006   21.442818   31.205254
        70        70         1    0.000000   17.595634   24.847729   28.743219
        71        71         1    0.000000   15.375198   26.173315   37.537758
        72        72         1    0.000000   16.812800   22.922208   35.949058
        73        73         1    0.000000   14.720428   26.327118   33.487024
        74        74         1    0.000000   13.937595   24.401597   40.692863
        75        75         1    0.000000   28.294816   22.474842   25.678247
        76        76         1    0.000000   29.732418   19.223734   24.089547
        77        77         1    0.000000   25.419610   23.954231   30.422051
        78        78         1    0.000000   23.327238   27.359142   27.960017
        79        79         1    0.000000   26.857213   20.703123   28.833351
        80        80         1    0.000000   24.764841   24.108034   26.371317
        81        81         1    0.000000   22.544405   25.433621   35.165856
        82        82         1    0.000000   20.452033   28.838531   32.703821
        83        83         1    0.000000   23.982008   22.182513   33.577156
        84        84         1    0.000000   21.889635   25.587423   31.115121
        85        85         1    0.000000   19.669199   26.913010   39.909661
        86        86         1    0.000000   17.576827   30.317921   37.447626
        87        87         1    0.000000   21.106802   23.661902   38.320960
        88        88         1    0.000000   19.014430   27.066813   35.858926
        89        89         1    0.000000   16.793994   28.392400   44.653465
        90        90         1    0.000000   18.231597   25.141292   43.064765
        91        91         1    0.000000   16.139225   28.546202   40.602730
        92        92         1    0.000000   15.356391   26.620681   47.808569
        93        93         1    0.000000   32.588818   23.214536   28.050149
        94        94         1    0.000000   30.496445   26.619447   25.588115
        95        95         1    0.000000   34.026420   19.963429   26.461449
        96        96         1    0.000000   29.713612   24.693926   32.793954
        97        97         1    0.000000   27.621240   28.098836   30.331919
        98        98         1    0.000000   31.151215   21.442818   31.205254
        99        99         1    0.000000   29.058843   24.847729   28.743219
       100       100         1    0.000000   26.838407   26.173315   37.537758
       101       101         1    0.000000   24.746035   29.578226   35.075724
       102       102         1    0.000000   28.276009   22.922208   35.949058
       103       103         1    0.000000   26.183637   26.327118   33.487024
       104       104         1    0.000000   23.963201   27.652705   42.281563
       105       105         1    0.000000   21.870829   31.057615   39.819528
       106       106         1    0.000000   25.400804   24.401597   40.692863
       107       107         1    0.000000   23.308432   27.806508   38.230828
       108       108         1    0.000000   21.087996   29.132094   47.025367
       109       109         1    0.000000   18.995624   32.537005   44.563333
       110       110         1    0.000000   22.525599   25.880987   45.436667
       111       111         1    0.000000   20.433227   29.285897   42.974633
       112       112         1    0.000000   18.212790   30.611484   51.769172
       113       113         1    0.000000   19.650393   27.360376   50.180472
       114       114         1    0.000000   17.558021   30.765287   47.718437
       115       115         1    0.000000   16.775188   28.839766   54.924276
       116       116         1    0.000000   39.758025   22.474842   25.678247
       117       117         1    0.000000   41.195628   19.223734   24.089547
       118       118         1    0.000000   36.882819   23.954231   30.422051
       119       119         1    0.000000   34.790447   27.359142   27.960017
       120       120         1    0.000000   38.320422   20.703123   28.833351
       121       121         1    0.000000   36.228050   24.108034   26.371317
       122       122         1    0.000000   34.007614   25.433621   35.165856
       123       123         1    0.000000   31.915242   28.838531   32.703821
       124       124         1    0.000000   35.445217   22.182513   33.577156
       125       125         1    0.000000   33.352845   25.587423   31.115121
       126       126         1    0.000000   31.132409   26.913010   39.909661
       127       127         1    0.000000   29.040037   30.317921   37.447626
       128       128         1    0.000000   32.570011   23.661902   38.320960
       129       129         1    0.000000   30.477639   27.066813   35.858926
       130       130         1    0.000000   28.257203   28.392400   44.653465
       131       131         1    0.000000   26.164831   31.797310   42.191431
       132       132         1    0.000000   29.694806   25.141292   43.064765
       133       133         1    0.000000   27.602434   28.546202   40.602730
       134       134         1    0.000000   25.381998   29.871789   49.397270
       135       135         1    0.000000   23.289626   33.276700   46.935235
       136       136         1    0.000000   26.819600   26.620681   47.808569
       137       137         1    0.000000   24.727228   30.025592   45.346535
       138       138         1    0.000000   22.506792   31.351179   54.141074
       139       139         1    0.000000   23.944395   28.100071   52.552374
       140       140         1    0.000000   21.852023   31.504981   50.090339
       141       141         1    0.000000   19.631587   32.830568   58.884879
       142       142         1    0.000000   21.069190   29.579460   57.296179
       143       143         1    0.000000   18.976818   32.984371   54.834144
       144       144         1    0.000000   18.193984   31.058850   62.039983
       145       145         1    0.000000   44.052027   23.214536   28.050149
       146       146         1    0.000000   41.959655   26.619447   25.588115
       147       147         1    0.000000   45.489629   19.963429   26.461449
       148       148         1    0.000000   41.176821   24.693926   32.793954
       149       149         1    0.000000   39.084449   28.098836   30.331919
       150       150         1    0.000000   42.614424   21.442818   31.205254
       151       151         1    0.000000   40.522052   24.847729   28.743219
       152       152         1    0.000000   38.301616   26.173315   37.537758
       153       153         1    0.000000   36.209244   29.578226   35.075724
       154       154         1    0.000000   39.739219   22.922208   35.949058
       155       155         1    0.000000   37.646847   26.327118   33.487024
       156       156         1    0.000000   35.426410   27.652705   42.281563
       157       157         1    0.000000   33.334038   31.057615   39.819528
       158       158         1    0.000000   36.864013   24.401597   40.692863
       159       159         1    0.000000   34.771641   27.806508   38.230828
       160       160         1    0.000000   32.551205   29.132094   47.025367
       161       161         1    0.000000   30.458833   32.537005   44.563333
       162       162         1    0.000000   33.988808   25.880987   45.436667
       163       163         1    0.000000   31.896436   29.285897   42.974633
       164       164         1    0.000000   29.676000   30.611484   51.769172
       165       165         1    0.000000   31.113602   27.360376   50.180472
       166       166         1    0.000000   29.021230   30.765287   47.718437
       167       167         1    0.000000   26.800794   32.090873   56.512976
       168       168         1    0.000000   28.238397   28.839766   54.924276
       169       169         1    0.000000   26.146025   32.244676   52.462242
       170       170         1    0.000000   25.363192   30.319155   59.668081
       171       171         1    0.000000   22.487986   31.798545   64.411885
       172       172         1    0.000000   51.221234   22.474842   25.678247
       173       173         1    0.000000   52.658837   19.223734   24.089547
       174       174         1    0.000000   48.346029   23.954231   30.422051
       175       175         1    0.000000   46.253657   27.359142   27.960017
       176       176         1    0.000000   49.783631   20.703123   28.833351
       177       177         1    0.000000   47.691259   24.108034   26.371317
       178       178         1    0.000000   45.470823   25.433621   35.165856
       179       179         1    0.000000   43.378451   28.838531   32.703821
       180       180         1    0.000000   46.908426   22.182513   33.577156
       181       181         1    0.000000   44.816054   25.587423   31.115121
       182       182         1    0.000000   42.595618   26.913010   39.909661
       183       183         1    0.000000   40.503246   30.317921   37.447626
       184       184         1    0.000000   44.033220   23.661902   38.320960
       185       185         1    0.000000   41.940848   27.066813   35.858926
       186       186         1    0.000000   39.720412   28.392400   44.653465
       187       187         1    0.000000   37.628040   31.797310   42.191431
       188       188         1    0.000000   41.158015   25.141292   43.064765
       189       189         1    0.000000   39.065643   28.546202   40.602730
       190       190         1    0.000000   36.845207   29.871789   49.397270
       191       191         1    0.000000   34.752835   33.276700   46.935235
       192       192         1    0.000000   38.282810   26.620681   47.808569
       193       193         1    0.000000   36.190438   30.025592   45.346535
       194       194         1    0.000000   33.970002   31.351179   54.141074
       195       195         1    0.000000   35.407604   28.100071   52.552374
       196       196         1    0.000000   33.315232   31.504981   50.090339
       197       197         1    0.000000   31.094796   32.830568   58.884879
       198       198         1    0.000000   32.532399   29.579460   57.296179
       199       199         1    0.000000   30.440027   32.984371   54.834144
       200       200         1    0.000000   29.657193   31.058850   62.039983
       201       201         1    0.000000   55.515236   23.214536   28.050149
       202       202         1    0.000000   53.422864   26.619447   25.588115
       203       203         1    0.000000   52.640030   24.693926   32.793954
       204       204         1    0.000000   50.547658   28.098836   30.331919
       205       205         1    0.000000   54.077633   21.442818   31.205254
       206       206         1    0.000000   51.985261   24.847729   28.743219
       207       207         1    0.000000   49.764825   26.173315   37.537758
       208       208         1    0.000000   47.672453   29.578226   35.075724
       209       209         1    0.000000   51.202428   22.922208   35.949058
       210       210         1    0.000000   49.110056   26.327118   33.487024
       211       211         1    0.000000   46.889620   27.652705   42.281563
       212       212         1    0.000000   44.797248   31.057615   39.819528
       213       213         1    0.000000   48.327222   24.401597   40.692863
       214       214         1    0.000000   46.234850   27.806508   38.230828
       215       215         1    0.000000   44.014414   29.132094   47.025367
       216       216         1    0.000000   41.922042   32.537005   44.563333
       217       217         1    0.000000   45.452017   25.880987   45.436667
       218       218         1    0.000000   43.359645   29.285897   42.974633
       219       219         1    0.000000   41.139209   30.611484   51.769172
       220       220         1    0.000000   42.576812   27.360376   50.180472
       221       221         1    0.000000   40.484440   30.765287   47.718437
       222       222         1    0.000000   38.264003   32.090873   56.512976
       223       223         1    0.000000   39.701606   28.839766   54.924276
       224       224         1    0.000000   37.609234   32.244676   52.462242
       225       225         1    0.000000   36.826401   30.319155   59.668081
       226       226         1    0.000000   33.951195   31.798545   64.411885
       227       227         1    0.000000   57.716866   27.359142   27.960017
       228       228         1    0.000000   56.934032   25.433621   35.165856
       229       229         1    0.000000   54.841660   28.838531   32.703821
       230       230         1    0.000000   56.279263   25.587423   31.115121
       231       231         1    0.000000   54.058827   26.913010   39.909661
       232       232         1    0.000000   51.966455   30.317921   37.447626
       233       233         1    0.000000   55.496430   23.661902   38.320960
       234       234         1    0.000000   53.404058   27.066813   35.858926
       235       235         1    0.000000   51.183622   28.392400   44.653465
       236       236         1    0.000000   49.091250   31.797310   42.191431
       237       237         1    0.000000   52.621224   25.141292   43.064765
       238       238         1    0.000000   50.528852   28.546202   40.602730
       239       239         1    0.000000   48.308416   29.871789   49.397270
       240       240         1    0.000000   46.216044   33.276700   46.935235
       241       241         1    0.000000   49.746019   26.620681   47.808569
       242       242         1    0.000000   47.653647   30.025592   45.346535
       243       243         1    0.000000   45.433211   31.351179   54.141074
       244       244         1    0.000000   46.870813   28.100071   52.552374
       245       245         1    0.000000   44.778441   31.504981   50.090339
       246       246         1    0.000000   42.558005   32.830568   58.884879
       247       247         1    0.000000   43.995608   29.579460   57.296179
       248       248         1    0.000000   41.903236   32.984371   54.834144
       249       249         1    0.000000   41.120403   31.058850   62.039983
       250       250         1    0.000000   59.135662   29.578226   35.075724
       251       251         1    0.000000   58.352829   27.652705   42.281563
       252       252         1    0.000000   56.260457   31.057615   39.819528
       253       253         1    0.000000   57.698060   27.806508   38.230828
       254       254         1    0.000000   55.477623   29.132094   47.025367
       255       255         1    0.000000   53.385251   32.537005   44.563333
       256       256         1    0.000000   56.915226   25.880987   45.436667
       257       257         1    0.000000   54.822854   29.285897   42.974633
       258       258         1    0.000000   52.602418   30.611484   51.769172
       259       259         1    0.000000   54.040021   27.360376   50.180472
       260       260         1    0.000000   51.947649   30.765287   47.718437
       261       261         1    0.000000   49.727213   32.090873   56.512976
       262       262         1    0.000000   51.164815   28.839766   54.924276
       263       263         1    0.000000   49.072443   32.244676   52.462242
       264       264         1    0.000000   48.289610   30.319155   59.668081
       265       265         1    0.000000   45.414405   31.798545   64.411885
       266       266         1    0.000000   60.554459   31.797310   42.191431
       267       267         1    0.000000   59.771625   29.871789   49.397270
       268       268         1    0.000000   57.679253   33.276700   46.935235
       269       269         1    0.000000   59.116856   30.025592   45.346535
       270       270         1    0.000000   56.896420   31.351179   54.141074
       271       271         1    0.000000   58.334023   28.100071   52.552374
       272       272         1    0.000000   56.241651   31.504981   50.090339
       273       273         1    0.000000   54.021215   32.830568   58.884879
       274       274         1    0.000000   55.458817   29.579460   57.296179
       275       275         1    0.000000   53.366445   32.984371   54.834144
       276       276         1    0.000000   52.583612   31.058850   62.039983
       277       277         1    0.000000   61.190422   32.090873   56.512976
       278       278         1    0.000000   60.535653   32.244676   52.462242
       279       279         1    0.000000   59.752819   30.319155   59.668081
       280       280         1    0.000000   56.877614   31.798545   64.411885
       281       281         1    0.000000    6.806000   11.618001   26.461449
       282       282         1    0.000000   12.537605   14.129414   25.678247
       283       283         1    0.000000   13.975207   10.878307   24.089547
       284       284         1    0.000000    9.662399   15.608804   30.422051
       285       285         1    0.000000   11.100002   12.357696   28.833351
       286       286         1    0.000000    9.007630   15.762607   26.371317
       287       287         1    0.000000    8.224796   13.837086   33.577156
       288       288         1    0.000000   16.831606   14.869109   28.050149
       289       289         1    0.000000   14.739234   18.274020   25.588115
       290       290         1    0.000000   18.269209   11.618001   26.461449
       291       291         1    0.000000   13.956401   16.348498   32.793954
       292       292         1    0.000000   11.864029   19.753409   30.331919
       293       293         1    0.000000   15.394004   13.097391   31.205254
       294       294         1    0.000000   13.301632   16.502301   28.743219
       295       295         1    0.000000   11.081196   17.827888   37.537758
       296       296         1    0.000000   12.518798   14.576780   35.949058
       297       297         1    0.000000   10.426426   17.981691   33.487024
       298       298         1    0.000000    9.643593   16.056170   40.692863
       299       299         1    0.000000   24.000814   14.129414   25.678247
       300       300         1    0.000000   25.438416   10.878307   24.089547
       301       301         1    0.000000   21.125608   15.608804   30.422051
       302       302         1    0.000000   19.033236   19.013714   27.960017
       303       303         1    0.000000   22.563211   12.357696   28.833351
       304       304         1    0.000000   20.470839   15.762607   26.371317
       305       305         1    0.000000   18.250403   17.088193   35.165856
       306       306         1    0.000000   16.158031   20.493104   32.703821
       307       307         1    0.000000   19.688006   13.837086   33.577156
       308       308         1    0.000000   17.595634   17.241996   31.115121
       309       309         1    0.000000   15.375198   18.567583   39.909661
       310       310         1    0.000000   13.282825   21.972493   37.447626
       311       311         1    0.000000   16.812800   15.316475   38.320960
       312       312         1    0.000000   14.720428   18.721386   35.858926
       313       313         1    0.000000   12.499992   20.046972   44.653465
       314       314         1    0.000000   13.937595   16.795865   43.064765
       315       315         1    0.000000   11.845223   20.200775   40.602730
       316       316         1    0.000000   11.062389   18.275254   47.808569
       317       317         1    0.000000   28.294816   14.869109   28.050149
       318       318         1    0.000000   26.202444   18.274020   25.588115
       319       319         1    0.000000   29.732418   11.618001   26.461449
       320       320         1    0.000000   25.419610   16.348498   32.793954
       321       321         1    0.000000   23.327238   19.753409   30.331919
       322       322         1    0.000000   26.857213   13.097391   31.205254
       323       323         1    0.000000   24.764841   16.502301   28.743219
       324       324         1    0.000000   22.544405   17.827888   37.537758
       325       325         1    0.000000   20.452033   21.232799   35.075724
       326       326         1    0.000000   23.982008   14.576780   35.949058
       327       327         1    0.000000   21.889635   17.981691   33.487024
       328       328         1    0.000000   19.669199   19.307277   42.281563
       329       329         1    0.000000   17.576827   22.712188   39.819528
       330       330         1    0.000000   21.106802   16.056170   40.692863
       331       331         1    0.000000   19.014430   19.461080   38.230828
       332       332         1    0.000000   16.793994   20.786667   47.025367
       333       333         1    0.000000   14.701622   24.191577   44.563333
       334       334         1    0.000000   18.231597   17.535559   45.436667
       335       335         1    0.000000   16.139225   20.940470   42.974633
       336       336         1    0.000000   13.918789   22.266056   51.769172
       337       337         1    0.000000   15.356391   19.014949   50.180472
       338       338         1    0.000000   13.264019   22.419859   47.718437
       339       339         1    0.000000   12.481186   20.494338   54.924276
       340       340         1    0.000000   35.464023   14.129414   25.678247
       341       341         1    0.000000   36.901626   10.878307   24.089547
       342       342         1    0.000000   32.588818   15.608804   30.422051
       343       343         1    0.000000   30.496445   19.013714   27.960017
       344       344         1    0.000000   34.026420   12.357696   28.833351
       345       345         1    0.000000   31.934048   15.762607   26.371317
       346       346         1    0.000000   29.713612   17.088193   35.165856
       347       347         1    0.000000   27.621240   20.493104   32.703821
       348       348         1    0.000000   31.151215   13.837086   33.577156
       349       349         1    0.000000   29.058843   17.241996   31.115121
       350       350         1    0.000000   26.838407   18.567583   39.909661
       351       351         1    0.000000   24.746035   21.972493   37.447626
       352       352         1    0.000000   28.276009   15.316475   38.320960
       353       353         1    0.000000   26.183637   18.721386   35.858926
       354       354         1    0.000000   23.963201   20.046972   44.653465
       355       355         1    0.000000   21.870829   23.451883   42.191431
       356       356         1    0.000000   25.400804   16.795865   43.064765
       357       357         1    0.000000   23.308432   20.200775   40.602730
       358       358         1    0.000000   21.087996   21.526362   49.397270
       359       359         1    0.000000   18.995624   24.931272   46.935235
       360       360         1    0.000000   22.525599   18.275254   47.808569
       361       361         1    0.000000   20.433227   21.680165   45.346535
       362       362         1    0.000000   18.212790   23.005751   54.141074
       363       363         1    0.000000   16.120418   26.410662   51.679040
       364       364         1    0.000000   19.650393   19.754644   52.552374
       365       365         1    0.000000   17.558021   23.159554   50.090339
       366       366         1    0.000000   15.337585   24.485141   58.884879
       367       367         1    0.000000   16.775188   21.234033   57.296179
       368       368         1    0.000000   14.682816   24.638944   54.834144
       369       369         1    0.000000   13.899982   22.713422   62.039983
       370       370         1    0.000000   39.758025   14.869109   28.050149
       371       371         1    0.000000   37.665653   18.274020   25.588115
       372       372         1    0.000000   41.195628   11.618001   26.461449
       373       373         1    0.000000   36.882819   16.348498   32.793954