LAMPPS input converted from DLPoly config file

     12140   atoms
      7720   bonds
      5540   angles
      1120   impropers

       5   atom types
       2   bond types
       2   angle types
       1   improper types

    0.000000   50.031645 xlo xhi
    0.000000   33.144057 ylo yhi
    0.000000   90.000000 zlo zhi

    3.935353    0.000000    0.000000 xy xz yz

  Masses

       1   40.080000    
       2   12.010000    
       3   16.000000    
       4   16.000000    
       5   1.0100000    

   Atoms

         1         1         1    0.000000    4.077985   31.480245   27.144293
         2         2         1    0.000000    6.713044   28.637951   26.772537
         3         3         1    0.000000   16.585897   31.480245   27.144293
         4         4         1    0.000000   19.220955   28.637951   26.772537
         5         5         1    0.000000   11.315779   32.105991   29.333673
         6         6         1    0.000000   13.950838   29.263698   28.961917
         7         7         1    0.000000    6.045662   32.731737   31.523053
         8         8         1    0.000000    8.680720   29.889444   31.151296
         9         9         1    0.000000    7.797014   33.081942   27.825628
        10        10         1    0.000000   29.093808   31.480245   27.144293
        11        11         1    0.000000   31.728867   28.637951   26.772537
        12        12         1    0.000000   23.823690   32.105991   29.333673
        13        13         1    0.000000   26.458749   29.263698   28.961917
        14        14         1    0.000000   18.553573   32.731737   31.523053
        15        15         1    0.000000   21.188632   29.889444   31.151296
        16        16         1    0.000000   20.304926   33.081942   27.825628
        17        17         1    0.000000   15.918514   30.515190   33.340676
        18        18         1    0.000000   10.648397   31.140936   35.530056
        19        19         1    0.000000    5.378279   31.766683   37.719436
        20        20         1    0.000000   41.601719   31.480245   27.144293
        21        21         1    0.000000   44.236778   28.637951   26.772537
        22        22         1    0.000000   36.331602   32.105991   29.333673
        23        23         1    0.000000   38.966660   29.263698   28.961917
        24        24         1    0.000000   31.061484   32.731737   31.523053
        25        25         1    0.000000   33.696543   29.889444   31.151296
        26        26         1    0.000000   32.812837   33.081942   27.825628
        27        27         1    0.000000   28.426426   30.515190   33.340676
        28        28         1    0.000000   23.156308   31.140936   35.530056
        29        29         1    0.000000   17.886191   31.766683   37.719436
        30        30         1    0.000000   12.616073   32.392429   39.908816
        31        31         1    0.000000    7.345956   33.018175   42.098196
        32        32         1    0.000000   48.839513   32.105991   29.333673
        33        33         1    0.000000   51.474572   29.263698   28.961917
        34        34         1    0.000000   43.569396   32.731737   31.523053
        35        35         1    0.000000   46.204454   29.889444   31.151296
        36        36         1    0.000000   45.320748   33.081942   27.825628
        37        37         1    0.000000   40.934337   30.515190   33.340676
        38        38         1    0.000000   35.664219   31.140936   35.530056
        39        39         1    0.000000   30.394102   31.766683   37.719436
        40        40         1    0.000000   25.123984   32.392429   39.908816
        41        41         1    0.000000   19.853867   33.018175   42.098196
        42        42         1    0.000000   53.442248   30.515190   33.340676
        43        43         1    0.000000   48.172131   31.140936   35.530056
        44        44         1    0.000000   42.902013   31.766683   37.719436
        45        45         1    0.000000   37.631896   32.392429   39.908816
        46        46         1    0.000000   32.361778   33.018175   42.098196
        47        47         1    0.000000   50.139807   32.392429   39.908816
        48        48         1    0.000000   44.869689   33.018175   42.098196
        49        49         1    0.000000    9.348103   23.194231   27.144293
        50        50         1    0.000000   11.983162   20.351937   26.772537
        51        51         1    0.000000    4.077985   23.819977   29.333673
        52        52         1    0.000000    6.713044   20.977683   28.961917
        53        53         1    0.000000   21.856014   23.194231   27.144293
        54        54         1    0.000000   24.491073   20.351937   26.772537
        55        55         1    0.000000   16.585897   23.819977   29.333673
        56        56         1    0.000000   15.702191   27.012475   26.008005
        57        57         1    0.000000   19.220955   20.977683   28.961917
        58        58         1    0.000000   11.315779   24.445723   31.523053
        59        59         1    0.000000   10.432073   27.638222   28.197385
        60        60         1    0.000000   13.950838   21.603430   31.151296
        61        61         1    0.000000   13.067132   24.795928   27.825628
        62        62         1    0.000000    6.045662   25.071470   33.712433
        63        63         1    0.000000    5.161956   28.263968   30.386765
        64        64         1    0.000000    8.680720   22.229176   33.340676
        65        65         1    0.000000    7.797014   25.421674   30.015008
        66        66         1    0.000000    3.410603   22.854922   35.530056
        67        67         1    0.000000   34.363925   23.194231   27.144293
        68        68         1    0.000000   36.998984   20.351937   26.772537
        69        69         1    0.000000   29.093808   23.819977   29.333673
        70        70         1    0.000000   28.210102   27.012475   26.008005
        71        71         1    0.000000   31.728867   20.977683   28.961917
        72        72         1    0.000000   23.823690   24.445723   31.523053
        73        73         1    0.000000   22.939985   27.638222   28.197385
        74        74         1    0.000000   26.458749   21.603430   31.151296
        75        75         1    0.000000   25.575043   24.795928   27.825628
        76        76         1    0.000000   18.553573   25.071470   33.712433
        77        77         1    0.000000   17.669867   28.263968   30.386765
        78        78         1    0.000000   21.188632   22.229176   33.340676
        79        79         1    0.000000   20.304926   25.421674   30.015008
        80        80         1    0.000000   13.283455   25.697216   35.901813
        81        81         1    0.000000   12.399750   28.889714   32.576145
        82        82         1    0.000000   15.918514   22.854922   35.530056
        83        83         1    0.000000   15.034808   26.047421   32.204388
        84        84         1    0.000000    8.013338   26.322962   38.091193
        85        85         1    0.000000    7.129632   29.515461   34.765525
        86        86         1    0.000000   10.648397   23.480669   37.719436
        87        87         1    0.000000    9.764691   26.673167   34.393768
        88        88         1    0.000000    5.378279   24.106415   39.908816
        89        89         1    0.000000    4.494573   27.298913   36.583148
        90        90         1    0.000000   46.871837   23.194231   27.144293
        91        91         1    0.000000   49.506895   20.351937   26.772537
        92        92         1    0.000000   41.601719   23.819977   29.333673
        93        93         1    0.000000   40.718013   27.012475   26.008005
        94        94         1    0.000000   44.236778   20.977683   28.961917
        95        95         1    0.000000   36.331602   24.445723   31.523053
        96        96         1    0.000000   35.447896   27.638222   28.197385
        97        97         1    0.000000   38.966660   21.603430   31.151296
        98        98         1    0.000000   38.082955   24.795928   27.825628
        99        99         1    0.000000   31.061484   25.071470   33.712433
       100       100         1    0.000000   30.177778   28.263968   30.386765
       101       101         1    0.000000   33.696543   22.229176   33.340676
       102       102         1    0.000000   32.812837   25.421674   30.015008
       103       103         1    0.000000   25.791367   25.697216   35.901813
       104       104         1    0.000000   24.907661   28.889714   32.576145
       105       105         1    0.000000   28.426426   22.854922   35.530056
       106       106         1    0.000000   27.542720   26.047421   32.204388
       107       107         1    0.000000   20.521249   26.322962   38.091193
       108       108         1    0.000000   19.637543   29.515461   34.765525
       109       109         1    0.000000   23.156308   23.480669   37.719436
       110       110         1    0.000000   22.272602   26.673167   34.393768
       111       111         1    0.000000   15.251132   26.948708   40.280573
       112       112         1    0.000000   14.367426   30.141207   36.954905
       113       113         1    0.000000   17.886191   24.106415   39.908816
       114       114         1    0.000000   17.002485   27.298913   36.583148
       115       115         1    0.000000    9.981014   27.574455   42.469953
       116       116         1    0.000000    9.097308   30.766953   39.144285
       117       117         1    0.000000   12.616073   24.732161   42.098196
       118       118         1    0.000000   11.732367   27.924660   38.772528
       119       119         1    0.000000    4.710897   28.200201   44.659332
       120       120         1    0.000000    3.827191   31.392700   41.333664
       121       121         1    0.000000    7.345956   25.357907   44.287576
       122       122         1    0.000000    6.462250   28.550406   40.961908
       123       123         1    0.000000   53.225925   27.012475   26.008005
       124       124         1    0.000000   48.839513   24.445723   31.523053
       125       125         1    0.000000   47.955807   27.638222   28.197385
       126       126         1    0.000000   51.474572   21.603430   31.151296
       127       127         1    0.000000   50.590866   24.795928   27.825628
       128       128         1    0.000000   43.569396   25.071470   33.712433
       129       129         1    0.000000   42.685690   28.263968   30.386765
       130       130         1    0.000000   46.204454   22.229176   33.340676
       131       131         1    0.000000   45.320748   25.421674   30.015008
       132       132         1    0.000000   38.299278   25.697216   35.901813
       133       133         1    0.000000   37.415572   28.889714   32.576145
       134       134         1    0.000000   40.934337   22.854922   35.530056
       135       135         1    0.000000   40.050631   26.047421   32.204388
       136       136         1    0.000000   33.029161   26.322962   38.091193
       137       137         1    0.000000   32.145455   29.515461   34.765525
       138       138         1    0.000000   35.664219   23.480669   37.719436
       139       139         1    0.000000   34.780513   26.673167   34.393768
       140       140         1    0.000000   27.759043   26.948708   40.280573
       141       141         1    0.000000   26.875337   30.141207   36.954905
       142       142         1    0.000000   30.394102   24.106415   39.908816
       143       143         1    0.000000   29.510396   27.298913   36.583148
       144       144         1    0.000000   22.488926   27.574455   42.469953
       145       145         1    0.000000   21.605220   30.766953   39.144285
       146       146         1    0.000000   25.123984   24.732161   42.098196
       147       147         1    0.000000   24.240278   27.924660   38.772528
       148       148         1    0.000000   17.218808   28.200201   44.659332
       149       149         1    0.000000   16.335102   31.392700   41.333664
       150       150         1    0.000000   19.853867   25.357907   44.287576
       151       151         1    0.000000   18.970161   28.550406   40.961908
       152       152         1    0.000000   11.948691   28.825947   46.848712
       153       153         1    0.000000   11.064985   32.018446   43.523044
       154       154         1    0.000000   14.583749   25.983654   46.476956
       155       155         1    0.000000   13.700043   29.176152   43.151288
       156       156         1    0.000000    6.678573   29.451694   49.038092
       157       157         1    0.000000    5.794867   32.644192   45.712424
       158       158         1    0.000000    9.313632   26.609400   48.666336
       159       159         1    0.000000    8.429926   29.801899   45.340668
       160       160         1    0.000000    4.043514   27.235146   50.855715
       161       161         1    0.000000   50.807189   25.697216   35.901813
       162       162         1    0.000000   49.923483   28.889714   32.576145
       163       163         1    0.000000   52.558542   26.047421   32.204388
       164       164         1    0.000000   45.537072   26.322962   38.091193
       165       165         1    0.000000   44.653366   29.515461   34.765525
       166       166         1    0.000000   48.172131   23.480669   37.719436
       167       167         1    0.000000   47.288425   26.673167   34.393768
       168       168         1    0.000000   40.266954   26.948708   40.280573
       169       169         1    0.000000   39.383248   30.141207   36.954905
       170       170         1    0.000000   42.902013   24.106415   39.908816
       171       171         1    0.000000   42.018307   27.298913   36.583148
       172       172         1    0.000000   34.996837   27.574455   42.469953
       173       173         1    0.000000   34.113131   30.766953   39.144285
       174       174         1    0.000000   37.631896   24.732161   42.098196
       175       175         1    0.000000   36.748190   27.924660   38.772528
       176       176         1    0.000000   29.726719   28.200201   44.659332
       177       177         1    0.000000   28.843013   31.392700   41.333664
       178       178         1    0.000000   32.361778   25.357907   44.287576
       179       179         1    0.000000   31.478072   28.550406   40.961908
       180       180         1    0.000000   24.456602   28.825947   46.848712
       181       181         1    0.000000   23.572896   32.018446   43.523044
       182       182         1    0.000000   27.091661   25.983654   46.476956
       183       183         1    0.000000   26.207955   29.176152   43.151288
       184       184         1    0.000000   19.186484   29.451694   49.038092
       185       185         1    0.000000   18.302779   32.644192   45.712424
       186       186         1    0.000000   21.821543   26.609400   48.666336
       187       187         1    0.000000   20.937837   29.801899   45.340668
       188       188         1    0.000000   13.916367   30.077440   51.227472
       189       189         1    0.000000   16.551426   27.235146   50.855715
       190       190         1    0.000000   15.667720   30.427645   47.530047
       191       191         1    0.000000    8.646249   30.703186   53.416852
       192       192         1    0.000000   11.281308   27.860893   53.045095
       193       193         1    0.000000   10.397602   31.053391   49.719427
       194       194         1    0.000000    6.011191   28.486639   55.234475
       195       195         1    0.000000    5.127485   31.679137   51.908807
       196       196         1    0.000000   52.774866   26.948708   40.280573
       197       197         1    0.000000   51.891160   30.141207   36.954905
       198       198         1    0.000000   47.504748   27.574455   42.469953
       199       199         1    0.000000   46.621042   30.766953   39.144285
       200       200         1    0.000000   50.139807   24.732161   42.098196
       201       201         1    0.000000   49.256101   27.924660   38.772528
       202       202         1    0.000000   42.234631   28.200201   44.659332
       203       203         1    0.000000   41.350925   31.392700   41.333664
       204       204         1    0.000000   44.869689   25.357907   44.287576
       205       205         1    0.000000   43.985984   28.550406   40.961908
       206       206         1    0.000000   36.964513   28.825947   46.848712
       207       207         1    0.000000   36.080807   32.018446   43.523044
       208       208         1    0.000000   39.599572   25.983654   46.476956
       209       209         1    0.000000   38.715866   29.176152   43.151288
       210       210         1    0.000000   31.694396   29.451694   49.038092
       211       211         1    0.000000   30.810690   32.644192   45.712424
       212       212         1    0.000000   34.329454   26.609400   48.666336
       213       213         1    0.000000   33.445749   29.801899   45.340668
       214       214         1    0.000000   26.424278   30.077440   51.227472
       215       215         1    0.000000   29.059337   27.235146   50.855715
       216       216         1    0.000000   28.175631   30.427645   47.530047
       217       217         1    0.000000   21.154161   30.703186   53.416852
       218       218         1    0.000000   23.789220   27.860893   53.045095
       219       219         1    0.000000   22.905514   31.053391   49.719427
       220       220         1    0.000000   15.884043   31.328933   55.606232
       221       221         1    0.000000   18.519102   28.486639   55.234475
       222       222         1    0.000000   17.635396   31.679137   51.908807
       223       223         1    0.000000   10.613926   31.954679   57.795612
       224       224         1    0.000000   13.248985   29.112385   57.423855
       225       225         1    0.000000   12.365279   32.304884   54.098187
       226       226         1    0.000000    5.343808   32.580425   59.984992
       227       227         1    0.000000    7.978867   29.738132   59.613235
       228       228         1    0.000000    7.095161   32.930630   56.287567
       229       229         1    0.000000   49.472425   28.825947   46.848712
       230       230         1    0.000000   48.588719   32.018446   43.523044
       231       231         1    0.000000   52.107483   25.983654   46.476956
       232       232         1    0.000000   51.223777   29.176152   43.151288
       233       233         1    0.000000   44.202307   29.451694   49.038092
       234       234         1    0.000000   43.318601   32.644192   45.712424
       235       235         1    0.000000   46.837366   26.609400   48.666336
       236       236         1    0.000000   45.953660   29.801899   45.340668
       237       237         1    0.000000   38.932190   30.077440   51.227472
       238       238         1    0.000000   41.567248   27.235146   50.855715
       239       239         1    0.000000   40.683542   30.427645   47.530047
       240       240         1    0.000000   33.662072   30.703186   53.416852
       241       241         1    0.000000   36.297131   27.860893   53.045095
       242       242         1    0.000000   35.413425   31.053391   49.719427
       243       243         1    0.000000   28.391955   31.328933   55.606232
       244       244         1    0.000000   31.027013   28.486639   55.234475
       245       245         1    0.000000   30.143307   31.679137   51.908807
       246       246         1    0.000000   23.121837   31.954679   57.795612
       247       247         1    0.000000   25.756896   29.112385   57.423855
       248       248         1    0.000000   24.873190   32.304884   54.098187
       249       249         1    0.000000   17.851720   32.580425   59.984992
       250       250         1    0.000000   20.486778   29.738132   59.613235
       251       251         1    0.000000   19.603072   32.930630   56.287567
       252       252         1    0.000000   15.216661   30.363878   61.802615
       253       253         1    0.000000    9.946543   30.989624   63.991995
       254       254         1    0.000000   51.440101   30.077440   51.227472
       255       255         1    0.000000   53.191454   30.427645   47.530047
       256       256         1    0.000000   46.169983   30.703186   53.416852
       257       257         1    0.000000   48.805042   27.860893   53.045095
       258       258         1    0.000000   47.921336   31.053391   49.719427
       259       259         1    0.000000   40.899866   31.328933   55.606232
       260       260         1    0.000000   43.534925   28.486639   55.234475
       261       261         1    0.000000   42.651219   31.679137   51.908807
       262       262         1    0.000000   35.629748   31.954679   57.795612
       263       263         1    0.000000   38.264807   29.112385   57.423855
       264       264         1    0.000000   37.381101   32.304884   54.098187
       265       265         1    0.000000   30.359631   32.580425   59.984992
       266       266         1    0.000000   32.994690   29.738132   59.613235
       267       267         1    0.000000   32.110984   32.930630   56.287567
       268       268         1    0.000000   27.724572   30.363878   61.802615
       269       269         1    0.000000   22.454455   30.989624   63.991995
       270       270         1    0.000000   53.407777   31.328933   55.606232
       271       271         1    0.000000   48.137660   31.954679   57.795612
       272       272         1    0.000000   50.772718   29.112385   57.423855
       273       273         1    0.000000   49.889013   32.304884   54.098187
       274       274         1    0.000000   42.867542   32.580425   59.984992
       275       275         1    0.000000   45.502601   29.738132   59.613235
       276       276         1    0.000000   44.618895   32.930630   56.287567
       277       277         1    0.000000   40.232483   30.363878   61.802615
       278       278         1    0.000000   34.962366   30.989624   63.991995
       279       279         1    0.000000   52.740395   30.363878   61.802615
       280       280         1    0.000000   47.470277   30.989624   63.991995
       281       281         1    0.000000    2.110309   14.908216   27.144293
       282       282         1    0.000000    4.745368   12.065923   26.772537
       283       283         1    0.000000   14.618220   14.908216   27.144293
       284       284         1    0.000000   17.253279   12.065923   26.772537
       285       285         1    0.000000    9.348103   15.533963   29.333673
       286       286         1    0.000000    8.464397   18.726461   26.008005
       287       287         1    0.000000   11.983162   12.691669   28.961917
       288       288         1    0.000000    4.077985   16.159709   31.523053
       289       289         1    0.000000    3.194279   19.352208   28.197385
       290       290         1    0.000000    6.713044   13.317415   31.151296
       291       291         1    0.000000    5.829338   16.509914   27.825628
       292       292         1    0.000000   27.126132   14.908216   27.144293
       293       293         1    0.000000   29.761190   12.065923   26.772537
       294       294         1    0.000000   21.856014   15.533963   29.333673
       295       295         1    0.000000   20.972308   18.726461   26.008005
       296       296         1    0.000000   24.491073   12.691669   28.961917
       297       297         1    0.000000   16.585897   16.159709   31.523053
       298       298         1    0.000000   15.702191   19.352208   28.197385
       299       299         1    0.000000   19.220955   13.317415   31.151296
       300       300         1    0.000000   18.337249   16.509914   27.825628
       301       301         1    0.000000   11.315779   16.785455   33.712433
       302       302         1    0.000000   10.432073   19.977954   30.386765
       303       303         1    0.000000   13.950838   13.943162   33.340676
       304       304         1    0.000000   13.067132   17.135660   30.015008
       305       305         1    0.000000    6.045662   17.411202   35.901813
       306       306         1    0.000000    5.161956   20.603700   32.576145
       307       307         1    0.000000    8.680720   14.568908   35.530056
       308       308         1    0.000000    7.797014   17.761407   32.204388
       309       309         1    0.000000    3.410603   15.194654   37.719436
       310       310         1    0.000000    2.526897   18.387153   34.393768
       311       311         1    0.000000   39.634043   14.908216   27.144293
       312       312         1    0.000000   42.269102   12.065923   26.772537
       313       313         1    0.000000   34.363925   15.533963   29.333673
       314       314         1    0.000000   33.480219   18.726461   26.008005
       315       315         1    0.000000   36.998984   12.691669   28.961917
       316       316         1    0.000000   29.093808   16.159709   31.523053
       317       317         1    0.000000   28.210102   19.352208   28.197385
       318       318         1    0.000000   31.728867   13.317415   31.151296
       319       319         1    0.000000   30.845161   16.509914   27.825628
       320       320         1    0.000000   23.823690   16.785455   33.712433
       321       321         1    0.000000   22.939985   19.977954   30.386765
       322       322         1    0.000000   26.458749   13.943162   33.340676
       323       323         1    0.000000   25.575043   17.135660   30.015008
       324       324         1    0.000000   18.553573   17.411202   35.901813
       325       325         1    0.000000   17.669867   20.603700   32.576145
       326       326         1    0.000000   21.188632   14.568908   35.530056
       327       327         1    0.000000   20.304926   17.761407   32.204388
       328       328         1    0.000000   13.283455   18.036948   38.091193
       329       329         1    0.000000   12.399750   21.229446   34.765525
       330       330         1    0.000000   15.918514   15.194654   37.719436
       331       331         1    0.000000   15.034808   18.387153   34.393768
       332       332         1    0.000000    8.013338   18.662694   40.280573
       333       333         1    0.000000    7.129632   21.855193   36.954905
       334       334         1    0.000000   10.648397   15.820401   39.908816
       335       335         1    0.000000    9.764691   19.012899   36.583148
       336       336         1    0.000000    2.743221   19.288441   42.469953
       337       337         1    0.000000    5.378279   16.446147   42.098196
       338       338         1    0.000000    4.494573   19.638645   38.772528
       339       339         1    0.000000   46.871837   15.533963   29.333673
       340       340         1    0.000000   45.988131   18.726461   26.008005
       341       341         1    0.000000   49.506895   12.691669   28.961917
       342       342         1    0.000000   41.601719   16.159709   31.523053
       343       343         1    0.000000   40.718013   19.352208   28.197385
       344       344         1    0.000000   44.236778   13.317415   31.151296
       345       345         1    0.000000   43.353072   16.509914   27.825628
       346       346         1    0.000000   36.331602   16.785455   33.712433
       347       347         1    0.000000   35.447896   19.977954   30.386765
       348       348         1    0.000000   38.966660   13.943162   33.340676
       349       349         1    0.000000   38.082955   17.135660   30.015008
       350       350         1    0.000000   31.061484   17.411202   35.901813
       351       351         1    0.000000   30.177778   20.603700   32.576145
       352       352         1    0.000000   33.696543   14.568908   35.530056
       353       353         1    0.000000   32.812837   17.761407   32.204388
       354       354         1    0.000000   25.791367   18.036948   38.091193
       355       355         1    0.000000   24.907661   21.229446   34.765525
       356       356         1    0.000000   28.426426   15.194654   37.719436
       357       357         1    0.000000   27.542720   18.387153   34.393768
       358       358         1    0.000000   20.521249   18.662694   40.280573
       359       359         1    0.000000   19.637543   21.855193   36.954905
       360       360         1    0.000000   23.156308   15.820401   39.908816
       361       361         1    0.000000   22.272602   19.012899   36.583148
       362       362         1    0.000000   15.251132   19.288441   42.469953
       363       363         1    0.000000   14.367426   22.480939   39.144285
       364       364         1    0.000000   17.886191   16.446147   42.098196
       365       365         1    0.000000   17.002485   19.638645   38.772528
       366       366         1    0.000000    9.981014   19.914187   44.659332
       367       367         1    0.000000    9.097308   23.106685   41.333664
       368       368         1    0.000000   12.616073   17.071893   44.287576
       369       369         1    0.000000   11.732367   20.264392   40.961908
       370       370         1    0.000000    4.710897   20.539933   46.848712
       371       371         1    0.000000    3.827191   23.732432   43.523044
       372       372         1    0.000000    7.345956   17.697640   46.476956
       373       373         1    0.000000    6.462250   20.890138   43.151288