LAMPPS input converted from DLPoly config file

     11904   atoms
      7552   bonds
      5504   angles
      1152   impropers

       5   atom types
       2   bond types
       2   angle types
       1   improper types

    0.000000   45.525176 xlo xhi
    0.000000   35.227977 ylo yhi
    0.000000   90.000000 zlo zhi

   12.974722    0.000000    0.000000 xy xz yz

  Masses

       1   40.080000    
       2   12.010000    
       3   16.000000    
       4   16.000000    
       5   1.0100000    

   Atoms

         1         1         1    0.000000   12.165154   29.435560   24.946623
         2         2         1    0.000000   19.752683   29.435560   24.946623
         3         3         1    0.000000   15.408834   31.035431   28.342277
         4         4         1    0.000000   13.869527   33.808659   24.882105
         5         5         1    0.000000   17.580759   27.855703   27.765695
         6         6         1    0.000000   13.236910   29.455575   31.161350
         7         7         1    0.000000   27.340213   29.435560   24.946623
         8         8         1    0.000000   22.996364   31.035431   28.342277
         9         9         1    0.000000   21.457057   33.808659   24.882105
        10        10         1    0.000000   25.168288   27.855703   27.765695
        11        11         1    0.000000   18.652515   32.635302   31.737932
        12        12         1    0.000000   20.824439   29.455575   31.161350
        13        13         1    0.000000   19.285132   32.228803   27.701178
        14        14         1    0.000000   14.308666   34.235174   35.133586
        15        15         1    0.000000   16.480590   31.055446   34.557004
        16        16         1    0.000000   14.941283   33.828674   31.096832
        17        17         1    0.000000   12.136741   32.655318   37.952659
        18        18         1    0.000000   34.927742   29.435560   24.946623
        19        19         1    0.000000   30.583893   31.035431   28.342277
        20        20         1    0.000000   29.044586   33.808659   24.882105
        21        21         1    0.000000   32.755817   27.855703   27.765695
        22        22         1    0.000000   26.240044   32.635302   31.737932
        23        23         1    0.000000   28.411969   29.455575   31.161350
        24        24         1    0.000000   26.872661   32.228803   27.701178
        25        25         1    0.000000   21.896195   34.235174   35.133586
        26        26         1    0.000000   24.068120   31.055446   34.557004
        27        27         1    0.000000   22.528813   33.828674   31.096832
        28        28         1    0.000000   19.724271   32.655318   37.952659
        29        29         1    0.000000   15.380422   34.255189   41.348313
        30        30         1    0.000000   42.515271   29.435560   24.946623
        31        31         1    0.000000   38.171422   31.035431   28.342277
        32        32         1    0.000000   36.632115   33.808659   24.882105
        33        33         1    0.000000   40.343347   27.855703   27.765695
        34        34         1    0.000000   33.827574   32.635302   31.737932
        35        35         1    0.000000   35.999498   29.455575   31.161350
        36        36         1    0.000000   34.460191   32.228803   27.701178
        37        37         1    0.000000   29.483725   34.235174   35.133586
        38        38         1    0.000000   31.655649   31.055446   34.557004
        39        39         1    0.000000   30.116342   33.828674   31.096832
        40        40         1    0.000000   27.311800   32.655318   37.952659
        41        41         1    0.000000   22.967951   34.255189   41.348313
        42        42         1    0.000000   50.102801   29.435560   24.946623
        43        43         1    0.000000   45.758952   31.035431   28.342277
        44        44         1    0.000000   44.219645   33.808659   24.882105
        45        45         1    0.000000   47.930876   27.855703   27.765695
        46        46         1    0.000000   41.415103   32.635302   31.737932
        47        47         1    0.000000   43.587027   29.455575   31.161350
        48        48         1    0.000000   42.047720   32.228803   27.701178
        49        49         1    0.000000   37.071254   34.235174   35.133586
        50        50         1    0.000000   39.243178   31.055446   34.557004
        51        51         1    0.000000   37.703871   33.828674   31.096832
        52        52         1    0.000000   34.899330   32.655318   37.952659
        53        53         1    0.000000   30.555481   34.255189   41.348313
        54        54         1    0.000000   53.346481   31.035431   28.342277
        55        55         1    0.000000   51.807174   33.808659   24.882105
        56        56         1    0.000000   55.518406   27.855703   27.765695
        57        57         1    0.000000   49.002632   32.635302   31.737932
        58        58         1    0.000000   51.174557   29.455575   31.161350
        59        59         1    0.000000   49.635250   32.228803   27.701178
        60        60         1    0.000000   44.658783   34.235174   35.133586
        61        61         1    0.000000   46.830708   31.055446   34.557004
        62        62         1    0.000000   45.291401   33.828674   31.096832
        63        63         1    0.000000   42.486859   32.655318   37.952659
        64        64         1    0.000000   38.143010   34.255189   41.348313
        65        65         1    0.000000   56.590162   32.635302   31.737932
        66        66         1    0.000000   57.222779   32.228803   27.701178
        67        67         1    0.000000   52.246313   34.235174   35.133586
        68        68         1    0.000000   54.418237   31.055446   34.557004
        69        69         1    0.000000   52.878930   33.828674   31.096832
        70        70         1    0.000000   50.074388   32.655318   37.952659
        71        71         1    0.000000   45.730539   34.255189   41.348313
        72        72         1    0.000000   53.318069   34.255189   41.348313
        73        73         1    0.000000    8.921473   20.628566   24.946623
        74        74         1    0.000000   16.509003   20.628566   24.946623
        75        75         1    0.000000   12.165154   22.228437   28.342277
        76        76         1    0.000000   10.625847   25.001665   24.882105
        77        77         1    0.000000   14.337078   19.048709   27.765695
        78        78         1    0.000000    9.993229   20.648581   31.161350
        79        79         1    0.000000   24.096532   20.628566   24.946623
        80        80         1    0.000000   19.752683   22.228437   28.342277
        81        81         1    0.000000   18.213376   25.001665   24.882105
        82        82         1    0.000000   21.924608   19.048709   27.765695
        83        83         1    0.000000   15.408834   23.828308   31.737932
        84        84         1    0.000000   13.869527   26.601536   28.277760
        85        85         1    0.000000   17.580759   20.648581   31.161350
        86        86         1    0.000000   16.041452   23.421809   27.701178
        87        87         1    0.000000   11.064985   25.428180   35.133586
        88        88         1    0.000000   13.236910   22.248452   34.557004
        89        89         1    0.000000   11.697603   25.021680   31.096832
        90        90         1    0.000000    8.893061   23.848323   37.952659
        91        91         1    0.000000   31.684061   20.628566   24.946623
        92        92         1    0.000000   27.340213   22.228437   28.342277
        93        93         1    0.000000   25.800905   25.001665   24.882105
        94        94         1    0.000000   29.512137   19.048709   27.765695
        95        95         1    0.000000   22.996364   23.828308   31.737932
        96        96         1    0.000000   21.457057   26.601536   28.277760
        97        97         1    0.000000   25.168288   20.648581   31.161350
        98        98         1    0.000000   23.628981   23.421809   27.701178
        99        99         1    0.000000   18.652515   25.428180   35.133586
       100       100         1    0.000000   17.113208   28.201408   31.673414
       101       101         1    0.000000   20.824439   22.248452   34.557004
       102       102         1    0.000000   19.285132   25.021680   31.096832
       103       103         1    0.000000   14.308666   27.028051   38.529241
       104       104         1    0.000000   12.769359   29.801279   35.069069
       105       105         1    0.000000   16.480590   23.848323   37.952659
       106       106         1    0.000000   14.941283   26.621552   34.492487
       107       107         1    0.000000   12.136741   25.448195   41.348313
       108       108         1    0.000000   10.597434   28.221423   37.888141
       109       109         1    0.000000   39.271591   20.628566   24.946623
       110       110         1    0.000000   34.927742   22.228437   28.342277
       111       111         1    0.000000   33.388435   25.001665   24.882105
       112       112         1    0.000000   37.099666   19.048709   27.765695
       113       113         1    0.000000   30.583893   23.828308   31.737932
       114       114         1    0.000000   29.044586   26.601536   28.277760
       115       115         1    0.000000   32.755817   20.648581   31.161350
       116       116         1    0.000000   31.216510   23.421809   27.701178
       117       117         1    0.000000   26.240044   25.428180   35.133586
       118       118         1    0.000000   24.700737   28.201408   31.673414
       119       119         1    0.000000   28.411969   22.248452   34.557004
       120       120         1    0.000000   26.872661   25.021680   31.096832
       121       121         1    0.000000   21.896195   27.028051   38.529241
       122       122         1    0.000000   20.356888   29.801279   35.069069
       123       123         1    0.000000   24.068120   23.848323   37.952659
       124       124         1    0.000000   22.528813   26.621552   34.492487
       125       125         1    0.000000   17.552346   28.627922   41.924895
       126       126         1    0.000000   16.013039   31.401151   38.464723
       127       127         1    0.000000   19.724271   25.448195   41.348313
       128       128         1    0.000000   18.184964   28.221423   37.888141
       129       129         1    0.000000   13.208497   30.227794   45.320550
       130       130         1    0.000000   15.380422   27.048066   44.743968
       131       131         1    0.000000   13.841115   29.821294   41.283796
       132       132         1    0.000000   11.036573   28.647937   48.139622
       133       133         1    0.000000   46.859120   20.628566   24.946623
       134       134         1    0.000000   42.515271   22.228437   28.342277
       135       135         1    0.000000   40.975964   25.001665   24.882105
       136       136         1    0.000000   44.687196   19.048709   27.765695
       137       137         1    0.000000   38.171422   23.828308   31.737932
       138       138         1    0.000000   36.632115   26.601536   28.277760
       139       139         1    0.000000   40.343347   20.648581   31.161350
       140       140         1    0.000000   38.804040   23.421809   27.701178
       141       141         1    0.000000   33.827574   25.428180   35.133586
       142       142         1    0.000000   32.288266   28.201408   31.673414
       143       143         1    0.000000   35.999498   22.248452   34.557004
       144       144         1    0.000000   34.460191   25.021680   31.096832
       145       145         1    0.000000   29.483725   27.028051   38.529241
       146       146         1    0.000000   27.944418   29.801279   35.069069
       147       147         1    0.000000   31.655649   23.848323   37.952659
       148       148         1    0.000000   30.116342   26.621552   34.492487
       149       149         1    0.000000   25.139876   28.627922   41.924895
       150       150         1    0.000000   23.600569   31.401151   38.464723
       151       151         1    0.000000   27.311800   25.448195   41.348313
       152       152         1    0.000000   25.772493   28.221423   37.888141
       153       153         1    0.000000   20.796027   30.227794   45.320550
       154       154         1    0.000000   19.256720   33.001022   41.860378
       155       155         1    0.000000   22.967951   27.048066   44.743968
       156       156         1    0.000000   21.428644   29.821294   41.283796
       157       157         1    0.000000   16.452178   31.827665   48.716204
       158       158         1    0.000000   14.912871   34.600893   45.256032
       159       159         1    0.000000   18.624102   28.647937   48.139622
       160       160         1    0.000000   17.084795   31.421166   44.679450
       161       161         1    0.000000   14.280254   30.247809   51.535277
       162       162         1    0.000000   12.740946   33.021037   48.075105
       163       163         1    0.000000   50.102801   22.228437   28.342277
       164       164         1    0.000000   48.563494   25.001665   24.882105
       165       165         1    0.000000   52.274725   19.048709   27.765695
       166       166         1    0.000000   45.758952   23.828308   31.737932
       167       167         1    0.000000   44.219645   26.601536   28.277760
       168       168         1    0.000000   47.930876   20.648581   31.161350
       169       169         1    0.000000   46.391569   23.421809   27.701178
       170       170         1    0.000000   41.415103   25.428180   35.133586
       171       171         1    0.000000   39.875796   28.201408   31.673414
       172       172         1    0.000000   43.587027   22.248452   34.557004
       173       173         1    0.000000   42.047720   25.021680   31.096832
       174       174         1    0.000000   37.071254   27.028051   38.529241
       175       175         1    0.000000   35.531947   29.801279   35.069069
       176       176         1    0.000000   39.243178   23.848323   37.952659
       177       177         1    0.000000   37.703871   26.621552   34.492487
       178       178         1    0.000000   32.727405   28.627922   41.924895
       179       179         1    0.000000   31.188098   31.401151   38.464723
       180       180         1    0.000000   34.899330   25.448195   41.348313
       181       181         1    0.000000   33.360022   28.221423   37.888141
       182       182         1    0.000000   28.383556   30.227794   45.320550
       183       183         1    0.000000   26.844249   33.001022   41.860378
       184       184         1    0.000000   30.555481   27.048066   44.743968
       185       185         1    0.000000   29.016174   29.821294   41.283796
       186       186         1    0.000000   24.039707   31.827665   48.716204
       187       187         1    0.000000   22.500400   34.600893   45.256032
       188       188         1    0.000000   26.211632   28.647937   48.139622
       189       189         1    0.000000   24.672325   31.421166   44.679450
       190       190         1    0.000000   19.695858   33.427536   52.111859
       191       191         1    0.000000   21.867783   30.247809   51.535277
       192       192         1    0.000000   20.328476   33.021037   48.075105
       193       193         1    0.000000   15.352010   35.027408   55.507513
       194       194         1    0.000000   17.523934   31.847680   54.930931
       195       195         1    0.000000   15.984627   34.620908   51.470759
       196       196         1    0.000000   13.180085   33.447552   58.326586
       197       197         1    0.000000   53.346481   23.828308   31.737932
       198       198         1    0.000000   51.807174   26.601536   28.277760
       199       199         1    0.000000   53.979098   23.421809   27.701178
       200       200         1    0.000000   49.002632   25.428180   35.133586
       201       201         1    0.000000   47.463325   28.201408   31.673414
       202       202         1    0.000000   51.174557   22.248452   34.557004
       203       203         1    0.000000   49.635250   25.021680   31.096832
       204       204         1    0.000000   44.658783   27.028051   38.529241
       205       205         1    0.000000   43.119476   29.801279   35.069069
       206       206         1    0.000000   46.830708   23.848323   37.952659
       207       207         1    0.000000   45.291401   26.621552   34.492487
       208       208         1    0.000000   40.314935   28.627922   41.924895
       209       209         1    0.000000   38.775627   31.401151   38.464723
       210       210         1    0.000000   42.486859   25.448195   41.348313
       211       211         1    0.000000   40.947552   28.221423   37.888141
       212       212         1    0.000000   35.971086   30.227794   45.320550
       213       213         1    0.000000   34.431779   33.001022   41.860378
       214       214         1    0.000000   38.143010   27.048066   44.743968
       215       215         1    0.000000   36.603703   29.821294   41.283796
       216       216         1    0.000000   31.627237   31.827665   48.716204
       217       217         1    0.000000   30.087930   34.600893   45.256032
       218       218         1    0.000000   33.799161   28.647937   48.139622
       219       219         1    0.000000   32.259854   31.421166   44.679450
       220       220         1    0.000000   27.283388   33.427536   52.111859
       221       221         1    0.000000   29.455312   30.247809   51.535277
       222       222         1    0.000000   27.916005   33.021037   48.075105
       223       223         1    0.000000   22.939539   35.027408   55.507513
       224       224         1    0.000000   25.111463   31.847680   54.930931
       225       225         1    0.000000   23.572156   34.620908   51.470759
       226       226         1    0.000000   20.767615   33.447552   58.326586
       227       227         1    0.000000   16.423766   35.047423   61.722240
       228       228         1    0.000000   55.050855   28.201408   31.673414
       229       229         1    0.000000   52.246313   27.028051   38.529241
       230       230         1    0.000000   50.707006   29.801279   35.069069
       231       231         1    0.000000   52.878930   26.621552   34.492487
       232       232         1    0.000000   47.902464   28.627922   41.924895
       233       233         1    0.000000   46.363157   31.401151   38.464723
       234       234         1    0.000000   50.074388   25.448195   41.348313
       235       235         1    0.000000   48.535081   28.221423   37.888141
       236       236         1    0.000000   43.558615   30.227794   45.320550
       237       237         1    0.000000   42.019308   33.001022   41.860378
       238       238         1    0.000000   45.730539   27.048066   44.743968
       239       239         1    0.000000   44.191232   29.821294   41.283796
       240       240         1    0.000000   39.214766   31.827665   48.716204
       241       241         1    0.000000   37.675459   34.600893   45.256032
       242       242         1    0.000000   41.386691   28.647937   48.139622
       243       243         1    0.000000   39.847383   31.421166   44.679450
       244       244         1    0.000000   34.870917   33.427536   52.111859
       245       245         1    0.000000   37.042842   30.247809   51.535277
       246       246         1    0.000000   35.503535   33.021037   48.075105
       247       247         1    0.000000   30.527068   35.027408   55.507513
       248       248         1    0.000000   32.698993   31.847680   54.930931
       249       249         1    0.000000   31.159686   34.620908   51.470759
       250       250         1    0.000000   28.355144   33.447552   58.326586
       251       251         1    0.000000   24.011295   35.047423   61.722240
       252       252         1    0.000000   55.489993   28.627922   41.924895
       253       253         1    0.000000   53.950686   31.401151   38.464723
       254       254         1    0.000000   51.146144   30.227794   45.320550
       255       255         1    0.000000   49.606837   33.001022   41.860378
       256       256         1    0.000000   53.318069   27.048066   44.743968
       257       257         1    0.000000   51.778762   29.821294   41.283796
       258       258         1    0.000000   46.802295   31.827665   48.716204
       259       259         1    0.000000   45.262988   34.600893   45.256032
       260       260         1    0.000000   48.974220   28.647937   48.139622
       261       261         1    0.000000   47.434913   31.421166   44.679450
       262       262         1    0.000000   42.458447   33.427536   52.111859
       263       263         1    0.000000   44.630371   30.247809   51.535277
       264       264         1    0.000000   43.091064   33.021037   48.075105
       265       265         1    0.000000   38.114598   35.027408   55.507513
       266       266         1    0.000000   40.286522   31.847680   54.930931
       267       267         1    0.000000   38.747215   34.620908   51.470759
       268       268         1    0.000000   35.942673   33.447552   58.326586
       269       269         1    0.000000   31.598824   35.047423   61.722240
       270       270         1    0.000000   57.194367   33.001022   41.860378
       271       271         1    0.000000   54.389825   31.827665   48.716204
       272       272         1    0.000000   52.850518   34.600893   45.256032
       273       273         1    0.000000   55.022442   31.421166   44.679450
       274       274         1    0.000000   50.045976   33.427536   52.111859
       275       275         1    0.000000   52.217900   30.247809   51.535277
       276       276         1    0.000000   50.678593   33.021037   48.075105
       277       277         1    0.000000   45.702127   35.027408   55.507513
       278       278         1    0.000000   47.874052   31.847680   54.930931
       279       279         1    0.000000   46.334744   34.620908   51.470759
       280       280         1    0.000000   43.530203   33.447552   58.326586
       281       281         1    0.000000   39.186354   35.047423   61.722240
       282       282         1    0.000000   57.633505   33.427536   52.111859
       283       283         1    0.000000   53.289656   35.027408   55.507513
       284       284         1    0.000000   55.461581   31.847680   54.930931
       285       285         1    0.000000   53.922274   34.620908   51.470759
       286       286         1    0.000000   51.117732   33.447552   58.326586
       287       287         1    0.000000   46.773883   35.047423   61.722240
       288       288         1    0.000000   54.361413   35.047423   61.722240
       289       289         1    0.000000    5.677793   11.821571   24.946623
       290       290         1    0.000000   13.265322   11.821571   24.946623
       291       291         1    0.000000    8.921473   13.421443   28.342277
       292       292         1    0.000000    7.382166   16.194671   24.882105
       293       293         1    0.000000   11.093398   10.241715   27.765695
       294       294         1    0.000000    6.749549   11.841586   31.161350
       295       295         1    0.000000   20.852852   11.821571   24.946623
       296       296         1    0.000000   16.509003   13.421443   28.342277
       297       297         1    0.000000   14.969696   16.194671   24.882105
       298       298         1    0.000000   18.680927   10.241715   27.765695
       299       299         1    0.000000   12.165154   15.021314   31.737932
       300       300         1    0.000000   10.625847   17.794542   28.277760
       301       301         1    0.000000   14.337078   11.841586   31.161350
       302       302         1    0.000000   12.797771   14.614815   27.701178
       303       303         1    0.000000    7.821305   16.621185   35.133586
       304       304         1    0.000000    9.993229   13.441458   34.557004
       305       305         1    0.000000    8.453922   16.214686   31.096832
       306       306         1    0.000000    5.649380   15.041329   37.952659
       307       307         1    0.000000   28.440381   11.821571   24.946623
       308       308         1    0.000000   24.096532   13.421443   28.342277
       309       309         1    0.000000   22.557225   16.194671   24.882105
       310       310         1    0.000000   26.268456   10.241715   27.765695
       311       311         1    0.000000   19.752683   15.021314   31.737932
       312       312         1    0.000000   18.213376   17.794542   28.277760
       313       313         1    0.000000   21.924608   11.841586   31.161350
       314       314         1    0.000000   20.385300   14.614815   27.701178
       315       315         1    0.000000   15.408834   16.621185   35.133586
       316       316         1    0.000000   13.869527   19.394414   31.673414
       317       317         1    0.000000   17.580759   13.441458   34.557004
       318       318         1    0.000000   16.041452   16.214686   31.096832
       319       319         1    0.000000   11.064985   18.221057   38.529241
       320       320         1    0.000000    9.525678   20.994285   35.069069
       321       321         1    0.000000   13.236910   15.041329   37.952659
       322       322         1    0.000000   11.697603   17.814557   34.492487
       323       323         1    0.000000    8.893061   16.641201   41.348313
       324       324         1    0.000000    7.353754   19.414429   37.888141
       325       325         1    0.000000   36.027910   11.821571   24.946623
       326       326         1    0.000000   31.684061   13.421443   28.342277
       327       327         1    0.000000   30.144754   16.194671   24.882105
       328       328         1    0.000000   33.855986   10.241715   27.765695
       329       329         1    0.000000   27.340213   15.021314   31.737932
       330       330         1    0.000000   25.800905   17.794542   28.277760
       331       331         1    0.000000   29.512137   11.841586   31.161350
       332       332         1    0.000000   27.972830   14.614815   27.701178
       333       333         1    0.000000   22.996364   16.621185   35.133586
       334       334         1    0.000000   21.457057   19.394414   31.673414
       335       335         1    0.000000   25.168288   13.441458   34.557004
       336       336         1    0.000000   23.628981   16.214686   31.096832
       337       337         1    0.000000   18.652515   18.221057   38.529241
       338       338         1    0.000000   17.113208   20.994285   35.069069
       339       339         1    0.000000   20.824439   15.041329   37.952659
       340       340         1    0.000000   19.285132   17.814557   34.492487
       341       341         1    0.000000   14.308666   19.820928   41.924895
       342       342         1    0.000000   12.769359   22.594156   38.464723
       343       343         1    0.000000   16.480590   16.641201   41.348313
       344       344         1    0.000000   14.941283   19.414429   37.888141
       345       345         1    0.000000    9.964817   21.420800   45.320550
       346       346         1    0.000000   12.136741   18.241072   44.743968
       347       347         1    0.000000   10.597434   21.014300   41.283796
       348       348         1    0.000000    7.792893   19.840943   48.139622
       349       349         1    0.000000   43.615440   11.821571   24.946623
       350       350         1    0.000000   39.271591   13.421443   28.342277
       351       351         1    0.000000   37.732284   16.194671   24.882105
       352       352         1    0.000000   41.443515   10.241715   27.765695
       353       353         1    0.000000   34.927742   15.021314   31.737932
       354       354         1    0.000000   33.388435   17.794542   28.277760
       355       355         1    0.000000   37.099666   11.841586   31.161350
       356       356         1    0.000000   35.560359   14.614815   27.701178
       357       357         1    0.000000   30.583893   16.621185   35.133586
       358       358         1    0.000000   29.044586   19.394414   31.673414
       359       359         1    0.000000   32.755817   13.441458   34.557004
       360       360         1    0.000000   31.216510   16.214686   31.096832
       361       361         1    0.000000   26.240044   18.221057   38.529241
       362       362         1    0.000000   24.700737   20.994285   35.069069
       363       363         1    0.000000   28.411969   15.041329   37.952659
       364       364         1    0.000000   26.872661   17.814557   34.492487
       365       365         1    0.000000   21.896195   19.820928   41.924895
       366       366         1    0.000000   20.356888   22.594156   38.464723
       367       367         1    0.000000   24.068120   16.641201   41.348313
       368       368         1    0.000000   22.528813   19.414429   37.888141
       369       369         1    0.000000   17.552346   21.420800   45.320550
       370       370         1    0.000000   16.013039   24.194028   41.860378
       371       371         1    0.000000   19.724271   18.241072   44.743968
       372       372         1    0.000000   18.184964   21.014300   41.283796
       373       373         1    0.000000   13.208497   23.020671   48.716204